nqpoint: 350    
npath: 7      
segment_nqpoint:
- 50
- 50
- 50
- 50
- 50
- 50
- 50
labels:
- [ 'X', 'G' ]
- [ 'G', 'Y|L' ]
- [ 'Y|L', 'G' ]
- [ 'G', 'Z|N' ]
- [ 'Z|N', 'G' ]
- [ 'G', 'M|R' ]
- [ 'M|R', 'G' ]
reciprocal_lattice:
- [   0.10163851,   0.00128270,   0.00115774 ] # a*
- [   0.00126218,   0.10158457,   0.00117423 ] # b*
- [   0.00121214,   0.00122302,   0.10050995 ] # c*
natom: 52     
lattice:
- [     9.841651620000000,    -0.120926960000000,    -0.117217440000000 ] # a
- [    -0.122922570000000,     9.846909580000000,    -0.118336290000000 ] # b
- [    -0.111927040000000,    -0.113645670000000,     9.951996870000000 ] # c
points:
- symbol: Li # 1
  coordinates: [  0.220465260000000,  0.214955330000000,  0.025193670000000 ]
  mass: 6.940000
- symbol: Li # 2
  coordinates: [  0.319665740000000,  0.205776900000000,  0.472286940000000 ]
  mass: 6.940000
- symbol: Li # 3
  coordinates: [  0.172704360000000,  0.475183720000000,  0.313790370000000 ]
  mass: 6.940000
- symbol: Li # 4
  coordinates: [  0.238729190000000,  0.024615990000000,  0.231802830000000 ]
  mass: 6.940000
- symbol: Li # 5
  coordinates: [  0.018392300000000,  0.193365870000000,  0.208002870000000 ]
  mass: 6.940000
- symbol: Li # 6
  coordinates: [  0.467926770000000,  0.321441580000000,  0.190659830000001 ]
  mass: 6.940000
- symbol: Li # 7
  coordinates: [  0.214621470000000,  0.719835860000000,  0.524935220000001 ]
  mass: 6.940000
- symbol: Li # 8
  coordinates: [  0.206307380000000,  0.819625600000000,  0.972059900000000 ]
  mass: 6.940000
- symbol: Li # 9
  coordinates: [  0.321894740000000,  0.967163210000000,  0.689908910000001 ]
  mass: 6.940000
- symbol: Li # 10
  coordinates: [  0.193451980000000,  0.517993610000000,  0.707580650000000 ]
  mass: 6.940000
- symbol: Li # 11
  coordinates: [  0.024666380000000,  0.738529010000000,  0.732252550000000 ]
  mass: 6.940000
- symbol: Li # 12
  coordinates: [  0.475315390000000,  0.672389390000000,  0.814572410000000 ]
  mass: 6.940000
- symbol: Li # 13
  coordinates: [  0.714139210000001,  0.219453620000000,  0.525066050000000 ]
  mass: 6.940000
- symbol: Li # 14
  coordinates: [  0.706833060000000,  0.319668240000000,  0.972296840000001 ]
  mass: 6.940000
- symbol: Li # 15
  coordinates: [  0.821817350000000,  0.466987220000000,  0.689659180000000 ]
  mass: 6.940000
- symbol: Li # 16
  coordinates: [  0.693587800000000,  0.018120380000000,  0.707886130000000 ]
  mass: 6.940000
- symbol: Li # 17
  coordinates: [  0.524877060000000,  0.239270980000000,  0.733009190000001 ]
  mass: 6.940000
- symbol: Li # 18
  coordinates: [  0.975662790000001,  0.172352630000000,  0.814061430000000 ]
  mass: 6.940000
- symbol: Li # 19
  coordinates: [  0.720368330000000,  0.714867310000000,  0.025015850000000 ]
  mass: 6.940000
- symbol: Li # 20
  coordinates: [  0.819356840000000,  0.705929710000000,  0.472254430000000 ]
  mass: 6.940000
- symbol: Li # 21
  coordinates: [  0.672616160000000,  0.975282879999999,  0.313924510000000 ]
  mass: 6.940000
- symbol: Li # 22
  coordinates: [  0.738621230000000,  0.524855050000000,  0.231615440000000 ]
  mass: 6.940000
- symbol: Li # 23
  coordinates: [  0.518284380000000,  0.693503890000000,  0.207965020000000 ]
  mass: 6.940000
- symbol: Li # 24
  coordinates: [  0.967571030000000,  0.821879120000000,  0.190302040000000 ]
  mass: 6.940000
- symbol: P  # 25
  coordinates: [  0.509728810000000,  0.004643080000000,  0.005634000000000 ]
  mass: 30.973762
- symbol: P  # 26
  coordinates: [  0.504798230000000,  0.509396380000000,  0.505772740000000 ]
  mass: 30.973762
- symbol: P  # 27
  coordinates: [  0.004784180000000,  0.009415740000000,  0.505767780000001 ]
  mass: 30.973762
- symbol: P  # 28
  coordinates: [  0.009758370000000,  0.504688109999999,  0.005696780000000 ]
  mass: 30.973762
- symbol: S  # 29
  coordinates: [  0.120293640000000,  0.378905870000000,  0.885088300000000 ]
  mass: 32.060000
- symbol: S  # 30
  coordinates: [  0.894720670000001,  0.382630720000000,  0.126405760000000 ]
  mass: 32.060000
- symbol: S  # 31
  coordinates: [  0.385185990000000,  0.116961640000000,  0.884479010000000 ]
  mass: 32.060000
- symbol: S  # 32
  coordinates: [  0.627984070000001,  0.134460030000000,  0.124329060000000 ]
  mass: 32.060000
- symbol: S  # 33
  coordinates: [  0.247947059999999,  0.256936240000000,  0.254096390000000 ]
  mass: 32.060000
- symbol: S  # 34
  coordinates: [  0.117534620000000,  0.885253500000000,  0.384585380000000 ]
  mass: 32.060000
- symbol: S  # 35
  coordinates: [  0.882614320000001,  0.894059789999999,  0.626048080000000 ]
  mass: 32.060000
- symbol: S  # 36
  coordinates: [  0.378985190000000,  0.619624680000000,  0.384949970000000 ]
  mass: 32.060000
- symbol: S  # 37
  coordinates: [  0.634399710000000,  0.627694270000000,  0.624663310000000 ]
  mass: 32.060000
- symbol: S  # 38
  coordinates: [  0.257189550000000,  0.747440990000000,  0.753850690000000 ]
  mass: 32.060000
- symbol: S  # 39
  coordinates: [  0.618013310000000,  0.385498299999999,  0.384773600000000 ]
  mass: 32.060000
- symbol: S  # 40
  coordinates: [  0.382618520000000,  0.393986880000000,  0.626022110000000 ]
  mass: 32.060000
- symbol: S  # 41
  coordinates: [  0.879004470000000,  0.119828780000000,  0.385098450000000 ]
  mass: 32.060000
- symbol: S  # 42
  coordinates: [  0.134652560000000,  0.127540480000000,  0.624581500000000 ]
  mass: 32.060000
- symbol: S  # 43
  coordinates: [  0.757333990000000,  0.247416450000000,  0.754005410000000 ]
  mass: 32.060000
- symbol: S  # 44
  coordinates: [  0.620012880000000,  0.878778550000000,  0.884893630000000 ]
  mass: 32.060000
- symbol: S  # 45
  coordinates: [  0.394493770000000,  0.882475950000000,  0.126036690000000 ]
  mass: 32.060000
- symbol: S  # 46
  coordinates: [  0.885069970000000,  0.616677010000000,  0.884411210000000 ]
  mass: 32.060000
- symbol: S  # 47
  coordinates: [  0.127768360000000,  0.634790670000000,  0.124332970000000 ]
  mass: 32.060000
- symbol: S  # 48
  coordinates: [  0.747772630000000,  0.757155170000000,  0.253968920000000 ]
  mass: 32.060000
- symbol: Cl # 49
  coordinates: [  0.049698460000000,  0.014028370000000,  0.032509370000000 ]
  mass: 35.450000
- symbol: Cl # 50
  coordinates: [  0.014066020000000,  0.549390820000000,  0.532299830000000 ]
  mass: 35.450000
- symbol: Cl # 51
  coordinates: [  0.514292080000000,  0.049371310000000,  0.532101850000000 ]
  mass: 35.450000
- symbol: Cl # 52
  coordinates: [  0.549906050000000,  0.513965920000000,  0.032542780000000 ]
  mass: 35.450000

phonon:
- q-position: [   -0.5000000,    0.0000000,    0.0000000 ]
  distance:    0.0000000
  band:
  - # 1
    frequency:    0.4015568081
  - # 2
    frequency:    0.6738681683
  - # 3
    frequency:    1.1537317647
  - # 4
    frequency:    1.3871976191
  - # 5
    frequency:    1.6489559130
  - # 6
    frequency:    1.7070323241
  - # 7
    frequency:    1.7715938764
  - # 8
    frequency:    1.8454812197
  - # 9
    frequency:    1.8937860376
  - # 10
    frequency:    2.0234059849
  - # 11
    frequency:    2.1022604527
  - # 12
    frequency:    2.1253319137
  - # 13
    frequency:    2.2012337227
  - # 14
    frequency:    2.2650222633
  - # 15
    frequency:    2.3704294979
  - # 16
    frequency:    2.4372577030
  - # 17
    frequency:    2.4725193595
  - # 18
    frequency:    2.6456383114
  - # 19
    frequency:    2.7107153986
  - # 20
    frequency:    2.8338090214
  - # 21
    frequency:    2.8573579377
  - # 22
    frequency:    2.9384763075
  - # 23
    frequency:    2.9895548069
  - # 24
    frequency:    3.0563328552
  - # 25
    frequency:    3.1655353375
  - # 26
    frequency:    3.2465430593
  - # 27
    frequency:    3.2658728635
  - # 28
    frequency:    3.2918239276
  - # 29
    frequency:    3.3368400911
  - # 30
    frequency:    3.4122150649
  - # 31
    frequency:    3.4908278411
  - # 32
    frequency:    3.5370858829
  - # 33
    frequency:    3.5533313277
  - # 34
    frequency:    3.5698326882
  - # 35
    frequency:    3.7535881783
  - # 36
    frequency:    3.7865461393
  - # 37
    frequency:    3.9989311678
  - # 38
    frequency:    4.0317257805
  - # 39
    frequency:    4.1230354090
  - # 40
    frequency:    4.1659596006
  - # 41
    frequency:    4.2151565435
  - # 42
    frequency:    4.2635574478
  - # 43
    frequency:    4.3090953239
  - # 44
    frequency:    4.3733981736
  - # 45
    frequency:    4.5273349516
  - # 46
    frequency:    4.5870094373
  - # 47
    frequency:    4.7342055445
  - # 48
    frequency:    4.7548823955
  - # 49
    frequency:    5.0434889687
  - # 50
    frequency:    5.1058093743
  - # 51
    frequency:    5.1401150762
  - # 52
    frequency:    5.1731931929
  - # 53
    frequency:    5.2368878725
  - # 54
    frequency:    5.2775305359
  - # 55
    frequency:    5.4162794882
  - # 56
    frequency:    5.4257609400
  - # 57
    frequency:    5.5648736835
  - # 58
    frequency:    5.6210395872
  - # 59
    frequency:    5.7544658406
  - # 60
    frequency:    5.7870982156
  - # 61
    frequency:    6.0515690425
  - # 62
    frequency:    6.0850846624
  - # 63
    frequency:    6.2134679625
  - # 64
    frequency:    6.2929915593
  - # 65
    frequency:    6.4144931286
  - # 66
    frequency:    6.4657677434
  - # 67
    frequency:    6.5735020066
  - # 68
    frequency:    6.6206848918
  - # 69
    frequency:    6.7103854174
  - # 70
    frequency:    6.7648939311
  - # 71
    frequency:    6.9124270197
  - # 72
    frequency:    6.9685386969
  - # 73
    frequency:    7.0746692526
  - # 74
    frequency:    7.1115001373
  - # 75
    frequency:    7.3320141106
  - # 76
    frequency:    7.3701993033
  - # 77
    frequency:    7.4894650067
  - # 78
    frequency:    7.5422115914
  - # 79
    frequency:    7.7398182576
  - # 80
    frequency:    7.7562356265
  - # 81
    frequency:    7.9360402233
  - # 82
    frequency:    7.9744735948
  - # 83
    frequency:    8.1253030318
  - # 84
    frequency:    8.1379215237
  - # 85
    frequency:    8.2871369983
  - # 86
    frequency:    8.3134732502
  - # 87
    frequency:    8.3421469369
  - # 88
    frequency:    8.3709652164
  - # 89
    frequency:    8.4799865138
  - # 90
    frequency:    8.5147596233
  - # 91
    frequency:    8.5223082710
  - # 92
    frequency:    8.5582298729
  - # 93
    frequency:    8.9632788660
  - # 94
    frequency:    8.9827428418
  - # 95
    frequency:    9.2993683735
  - # 96
    frequency:    9.3538629940
  - # 97
    frequency:    9.5119864672
  - # 98
    frequency:    9.5908218707
  - # 99
    frequency:    9.6381989825
  - # 100
    frequency:    9.7264939463
  - # 101
    frequency:   10.4116270846
  - # 102
    frequency:   10.4501763259
  - # 103
    frequency:   10.8954841167
  - # 104
    frequency:   10.9251129878
  - # 105
    frequency:   11.3269011752
  - # 106
    frequency:   11.3597190868
  - # 107
    frequency:   11.4524840362
  - # 108
    frequency:   11.4915656806
  - # 109
    frequency:   11.7046927654
  - # 110
    frequency:   11.7514422083
  - # 111
    frequency:   11.8646870232
  - # 112
    frequency:   11.8854539366
  - # 113
    frequency:   12.0565014799
  - # 114
    frequency:   12.0856194380
  - # 115
    frequency:   12.1462096088
  - # 116
    frequency:   12.1499134559
  - # 117
    frequency:   12.3510901556
  - # 118
    frequency:   12.3794406899
  - # 119
    frequency:   12.4522123993
  - # 120
    frequency:   12.4576619410
  - # 121
    frequency:   12.6524000835
  - # 122
    frequency:   12.7205879825
  - # 123
    frequency:   12.8334902732
  - # 124
    frequency:   12.8630260638
  - # 125
    frequency:   13.1203133101
  - # 126
    frequency:   13.1603699282
  - # 127
    frequency:   13.2982958175
  - # 128
    frequency:   13.3128716989
  - # 129
    frequency:   13.5474173174
  - # 130
    frequency:   13.5791866853
  - # 131
    frequency:   13.7188211052
  - # 132
    frequency:   13.7688166973
  - # 133
    frequency:   13.8761317441
  - # 134
    frequency:   13.9005335147
  - # 135
    frequency:   14.0645677159
  - # 136
    frequency:   14.0788274983
  - # 137
    frequency:   14.6840763867
  - # 138
    frequency:   14.6987152965
  - # 139
    frequency:   14.7755488137
  - # 140
    frequency:   14.7949848693
  - # 141
    frequency:   16.1103092832
  - # 142
    frequency:   16.1477545916
  - # 143
    frequency:   16.1752760060
  - # 144
    frequency:   16.1977281038
  - # 145
    frequency:   16.7351736068
  - # 146
    frequency:   16.8360698604
  - # 147
    frequency:   16.9172544073
  - # 148
    frequency:   16.9668195701
  - # 149
    frequency:   17.0208306086
  - # 150
    frequency:   17.2083652777
  - # 151
    frequency:   17.3015093028
  - # 152
    frequency:   17.3687974543
  - # 153
    frequency:   17.6939180162
  - # 154
    frequency:   17.7957219357
  - # 155
    frequency:   17.8306217485
  - # 156
    frequency:   18.0054843681

- q-position: [   -0.4897959,    0.0000000,    0.0000000 ]
  distance:    0.0010373
  band:
  - # 1
    frequency:    0.4009943347
  - # 2
    frequency:    0.6720674969
  - # 3
    frequency:    1.1552723579
  - # 4
    frequency:    1.3876089604
  - # 5
    frequency:    1.6488777755
  - # 6
    frequency:    1.7067414666
  - # 7
    frequency:    1.7717237865
  - # 8
    frequency:    1.8445705330
  - # 9
    frequency:    1.8933002856
  - # 10
    frequency:    2.0236418937
  - # 11
    frequency:    2.1020615493
  - # 12
    frequency:    2.1251715382
  - # 13
    frequency:    2.2013246947
  - # 14
    frequency:    2.2649412141
  - # 15
    frequency:    2.3688635364
  - # 16
    frequency:    2.4379957098
  - # 17
    frequency:    2.4725093435
  - # 18
    frequency:    2.6444713885
  - # 19
    frequency:    2.7122309657
  - # 20
    frequency:    2.8339396842
  - # 21
    frequency:    2.8568459511
  - # 22
    frequency:    2.9390422268
  - # 23
    frequency:    2.9893890410
  - # 24
    frequency:    3.0568516933
  - # 25
    frequency:    3.1656649492
  - # 26
    frequency:    3.2457663546
  - # 27
    frequency:    3.2657118396
  - # 28
    frequency:    3.2925711959
  - # 29
    frequency:    3.3363914689
  - # 30
    frequency:    3.4137005986
  - # 31
    frequency:    3.4903895956
  - # 32
    frequency:    3.5359825718
  - # 33
    frequency:    3.5543217400
  - # 34
    frequency:    3.5705972216
  - # 35
    frequency:    3.7534929934
  - # 36
    frequency:    3.7864953319
  - # 37
    frequency:    3.9991066059
  - # 38
    frequency:    4.0318535475
  - # 39
    frequency:    4.1231294822
  - # 40
    frequency:    4.1660614847
  - # 41
    frequency:    4.2152302137
  - # 42
    frequency:    4.2636294150
  - # 43
    frequency:    4.3090659874
  - # 44
    frequency:    4.3734349268
  - # 45
    frequency:    4.5276831020
  - # 46
    frequency:    4.5873208044
  - # 47
    frequency:    4.7342786348
  - # 48
    frequency:    4.7548779534
  - # 49
    frequency:    5.0432505952
  - # 50
    frequency:    5.1055667695
  - # 51
    frequency:    5.1399941514
  - # 52
    frequency:    5.1737404661
  - # 53
    frequency:    5.2369358308
  - # 54
    frequency:    5.2777908518
  - # 55
    frequency:    5.4146302897
  - # 56
    frequency:    5.4274257763
  - # 57
    frequency:    5.5648405619
  - # 58
    frequency:    5.6208780615
  - # 59
    frequency:    5.7545126041
  - # 60
    frequency:    5.7870636909
  - # 61
    frequency:    6.0506530273
  - # 62
    frequency:    6.0859726177
  - # 63
    frequency:    6.2134770689
  - # 64
    frequency:    6.2928956262
  - # 65
    frequency:    6.4143551598
  - # 66
    frequency:    6.4661157018
  - # 67
    frequency:    6.5732893299
  - # 68
    frequency:    6.6207529412
  - # 69
    frequency:    6.7104025702
  - # 70
    frequency:    6.7648698547
  - # 71
    frequency:    6.9124218030
  - # 72
    frequency:    6.9684949999
  - # 73
    frequency:    7.0746151883
  - # 74
    frequency:    7.1117539112
  - # 75
    frequency:    7.3319004267
  - # 76
    frequency:    7.3703447500
  - # 77
    frequency:    7.4889560507
  - # 78
    frequency:    7.5424418129
  - # 79
    frequency:    7.7378748191
  - # 80
    frequency:    7.7573034057
  - # 81
    frequency:    7.9358126648
  - # 82
    frequency:    7.9749309517
  - # 83
    frequency:    8.1243208244
  - # 84
    frequency:    8.1386133813
  - # 85
    frequency:    8.2870435473
  - # 86
    frequency:    8.3135972787
  - # 87
    frequency:    8.3417964010
  - # 88
    frequency:    8.3713491943
  - # 89
    frequency:    8.4791077145
  - # 90
    frequency:    8.5148319121
  - # 91
    frequency:    8.5230252765
  - # 92
    frequency:    8.5583085417
  - # 93
    frequency:    8.9625284191
  - # 94
    frequency:    8.9835313522
  - # 95
    frequency:    9.2988568021
  - # 96
    frequency:    9.3535994542
  - # 97
    frequency:    9.5122523809
  - # 98
    frequency:    9.5911168806
  - # 99
    frequency:    9.6383677752
  - # 100
    frequency:    9.7266161009
  - # 101
    frequency:   10.4047470918
  - # 102
    frequency:   10.4568422154
  - # 103
    frequency:   10.8955373640
  - # 104
    frequency:   10.9251477477
  - # 105
    frequency:   11.3264102302
  - # 106
    frequency:   11.3602074936
  - # 107
    frequency:   11.4524076305
  - # 108
    frequency:   11.4914833016
  - # 109
    frequency:   11.7047544700
  - # 110
    frequency:   11.7515793968
  - # 111
    frequency:   11.8645034738
  - # 112
    frequency:   11.8856150838
  - # 113
    frequency:   12.0564238276
  - # 114
    frequency:   12.0856270353
  - # 115
    frequency:   12.1446084843
  - # 116
    frequency:   12.1516368008
  - # 117
    frequency:   12.3506994599
  - # 118
    frequency:   12.3798043865
  - # 119
    frequency:   12.4520156019
  - # 120
    frequency:   12.4578594164
  - # 121
    frequency:   12.6521802405
  - # 122
    frequency:   12.7207991612
  - # 123
    frequency:   12.8334091023
  - # 124
    frequency:   12.8630405050
  - # 125
    frequency:   13.1183566676
  - # 126
    frequency:   13.1622227958
  - # 127
    frequency:   13.2970149992
  - # 128
    frequency:   13.3142441879
  - # 129
    frequency:   13.5473589718
  - # 130
    frequency:   13.5792246382
  - # 131
    frequency:   13.7187743950
  - # 132
    frequency:   13.7687861204
  - # 133
    frequency:   13.8759214686
  - # 134
    frequency:   13.9006820698
  - # 135
    frequency:   14.0620552367
  - # 136
    frequency:   14.0815523709
  - # 137
    frequency:   14.6841005415
  - # 138
    frequency:   14.6987429816
  - # 139
    frequency:   14.7754906379
  - # 140
    frequency:   14.7950011107
  - # 141
    frequency:   16.1101975264
  - # 142
    frequency:   16.1477010662
  - # 143
    frequency:   16.1754747635
  - # 144
    frequency:   16.1978046293
  - # 145
    frequency:   16.7351888401
  - # 146
    frequency:   16.8360174392
  - # 147
    frequency:   16.9169425687
  - # 148
    frequency:   16.9669131184
  - # 149
    frequency:   17.0206552367
  - # 150
    frequency:   17.2082436327
  - # 151
    frequency:   17.3015200231
  - # 152
    frequency:   17.3683051413
  - # 153
    frequency:   17.6924608243
  - # 154
    frequency:   17.7970228262
  - # 155
    frequency:   17.8313213440
  - # 156
    frequency:   18.0057350703

- q-position: [   -0.4795918,    0.0000000,    0.0000000 ]
  distance:    0.0020746
  band:
  - # 1
    frequency:    0.3993056681
  - # 2
    frequency:    0.6667476593
  - # 3
    frequency:    1.1598128060
  - # 4
    frequency:    1.3888410682
  - # 5
    frequency:    1.6486241794
  - # 6
    frequency:    1.7058683623
  - # 7
    frequency:    1.7721035331
  - # 8
    frequency:    1.8418144293
  - # 9
    frequency:    1.8919601859
  - # 10
    frequency:    2.0242905693
  - # 11
    frequency:    2.1014106957
  - # 12
    frequency:    2.1247356194
  - # 13
    frequency:    2.2015971774
  - # 14
    frequency:    2.2646972246
  - # 15
    frequency:    2.3644925668
  - # 16
    frequency:    2.4397355000
  - # 17
    frequency:    2.4726906964
  - # 18
    frequency:    2.6412582610
  - # 19
    frequency:    2.7164631211
  - # 20
    frequency:    2.8342159585
  - # 21
    frequency:    2.8554398205
  - # 22
    frequency:    2.9407018307
  - # 23
    frequency:    2.9889430195
  - # 24
    frequency:    3.0583514499
  - # 25
    frequency:    3.1660369538
  - # 26
    frequency:    3.2435309340
  - # 27
    frequency:    3.2652331049
  - # 28
    frequency:    3.2946429999
  - # 29
    frequency:    3.3353842185
  - # 30
    frequency:    3.4178912256
  - # 31
    frequency:    3.4891103950
  - # 32
    frequency:    3.5332890218
  - # 33
    frequency:    3.5567441707
  - # 34
    frequency:    3.5728037587
  - # 35
    frequency:    3.7532068025
  - # 36
    frequency:    3.7863433818
  - # 37
    frequency:    3.9996316848
  - # 38
    frequency:    4.0322350533
  - # 39
    frequency:    4.1234106778
  - # 40
    frequency:    4.1663681043
  - # 41
    frequency:    4.2154491605
  - # 42
    frequency:    4.2638449747
  - # 43
    frequency:    4.3089805127
  - # 44
    frequency:    4.3735455209
  - # 45
    frequency:    4.5287243556
  - # 46
    frequency:    4.5882533206
  - # 47
    frequency:    4.7344968587
  - # 48
    frequency:    4.7548651450
  - # 49
    frequency:    5.0425388592
  - # 50
    frequency:    5.1048761259
  - # 51
    frequency:    5.1396352757
  - # 52
    frequency:    5.1753378986
  - # 53
    frequency:    5.2370853076
  - # 54
    frequency:    5.2785660320
  - # 55
    frequency:    5.4112455954
  - # 56
    frequency:    5.4308596043
  - # 57
    frequency:    5.5647415288
  - # 58
    frequency:    5.6203961832
  - # 59
    frequency:    5.7546507236
  - # 60
    frequency:    5.7869598396
  - # 61
    frequency:    6.0481415722
  - # 62
    frequency:    6.0884004420
  - # 63
    frequency:    6.2135020214
  - # 64
    frequency:    6.2926126030
  - # 65
    frequency:    6.4139582547
  - # 66
    frequency:    6.4671381195
  - # 67
    frequency:    6.5726642730
  - # 68
    frequency:    6.6209395903
  - # 69
    frequency:    6.7104626617
  - # 70
    frequency:    6.7647947478
  - # 71
    frequency:    6.9124082052
  - # 72
    frequency:    6.9683648859
  - # 73
    frequency:    7.0744564067
  - # 74
    frequency:    7.1125090755
  - # 75
    frequency:    7.3315616725
  - # 76
    frequency:    7.3707760909
  - # 77
    frequency:    7.4874726605
  - # 78
    frequency:    7.5430838658
  - # 79
    frequency:    7.7331019831
  - # 80
    frequency:    7.7594713089
  - # 81
    frequency:    7.9351449237
  - # 82
    frequency:    7.9762734527
  - # 83
    frequency:    8.1218175605
  - # 84
    frequency:    8.1402455873
  - # 85
    frequency:    8.2867514870
  - # 86
    frequency:    8.3139761909
  - # 87
    frequency:    8.3408147850
  - # 88
    frequency:    8.3724395541
  - # 89
    frequency:    8.4766882408
  - # 90
    frequency:    8.5148456802
  - # 91
    frequency:    8.5251521821
  - # 92
    frequency:    8.5585550505
  - # 93
    frequency:    8.9605639562
  - # 94
    frequency:    8.9856100241
  - # 95
    frequency:    9.2973329230
  - # 96
    frequency:    9.3528191709
  - # 97
    frequency:    9.5130275101
  - # 98
    frequency:    9.5920021152
  - # 99
    frequency:    9.6388758489
  - # 100
    frequency:    9.7269813187
  - # 101
    frequency:   10.3904916521
  - # 102
    frequency:   10.4704559203
  - # 103
    frequency:   10.8956968729
  - # 104
    frequency:   10.9252518973
  - # 105
    frequency:   11.3250219401
  - # 106
    frequency:   11.3615867324
  - # 107
    frequency:   11.4521785448
  - # 108
    frequency:   11.4912388040
  - # 109
    frequency:   11.7049398071
  - # 110
    frequency:   11.7519890956
  - # 111
    frequency:   11.8639688796
  - # 112
    frequency:   11.8860829267
  - # 113
    frequency:   12.0561921331
  - # 114
    frequency:   12.0856489530
  - # 115
    frequency:   12.1420527442
  - # 116
    frequency:   12.1545584117
  - # 117
    frequency:   12.3495823648
  - # 118
    frequency:   12.3808406166
  - # 119
    frequency:   12.4514903763
  - # 120
    frequency:   12.4583863635
  - # 121
    frequency:   12.6515298407
  - # 122
    frequency:   12.7214238946
  - # 123
    frequency:   12.8331643898
  - # 124
    frequency:   12.8630849821
  - # 125
    frequency:   13.1132951797
  - # 126
    frequency:   13.1669735541
  - # 127
    frequency:   13.2940579773
  - # 128
    frequency:   13.3174764529
  - # 129
    frequency:   13.5471856304
  - # 130
    frequency:   13.5793364157
  - # 131
    frequency:   13.7186339740
  - # 132
    frequency:   13.7686915681
  - # 133
    frequency:   13.8753078638
  - # 134
    frequency:   13.9011117995
  - # 135
    frequency:   14.0570633767
  - # 136
    frequency:   14.0871828587
  - # 137
    frequency:   14.6841729863
  - # 138
    frequency:   14.6988259187
  - # 139
    frequency:   14.7753173536
  - # 140
    frequency:   14.7950487073
  - # 141
    frequency:   16.1098620903
  - # 142
    frequency:   16.1475537544
  - # 143
    frequency:   16.1760577057
  - # 144
    frequency:   16.1980342007
  - # 145
    frequency:   16.7352344972
  - # 146
    frequency:   16.8358601310
  - # 147
    frequency:   16.9160221032
  - # 148
    frequency:   16.9671787961
  - # 149
    frequency:   17.0201303319
  - # 150
    frequency:   17.2078742042
  - # 151
    frequency:   17.3015501168
  - # 152
    frequency:   17.3668481186
  - # 153
    frequency:   17.6883066828
  - # 154
    frequency:   17.8007049802
  - # 155
    frequency:   17.8334111319
  - # 156
    frequency:   18.0064854497

- q-position: [   -0.4693878,    0.0000000,    0.0000000 ]
  distance:    0.0031118
  band:
  - # 1
    frequency:    0.3964868143
  - # 2
    frequency:    0.6581397800
  - # 3
    frequency:    1.1671245883
  - # 4
    frequency:    1.3908882343
  - # 5
    frequency:    1.6481336361
  - # 6
    frequency:    1.7044125939
  - # 7
    frequency:    1.7727010812
  - # 8
    frequency:    1.8371847239
  - # 9
    frequency:    1.8900592348
  - # 10
    frequency:    2.0251951318
  - # 11
    frequency:    2.1001568316
  - # 12
    frequency:    2.1241473604
  - # 13
    frequency:    2.2020496738
  - # 14
    frequency:    2.2642884383
  - # 15
    frequency:    2.3580499351
  - # 16
    frequency:    2.4413446760
  - # 17
    frequency:    2.4736431552
  - # 18
    frequency:    2.6366210541
  - # 19
    frequency:    2.7227159322
  - # 20
    frequency:    2.8342607327
  - # 21
    frequency:    2.8535486690
  - # 22
    frequency:    2.9433525209
  - # 23
    frequency:    2.9883574156
  - # 24
    frequency:    3.0606779477
  - # 25
    frequency:    3.1665970359
  - # 26
    frequency:    3.2400405794
  - # 27
    frequency:    3.2644650137
  - # 28
    frequency:    3.2976373527
  - # 29
    frequency:    3.3346184626
  - # 30
    frequency:    3.4241623830
  - # 31
    frequency:    3.4870893059
  - # 32
    frequency:    3.5299025546
  - # 33
    frequency:    3.5598851421
  - # 34
    frequency:    3.5762200107
  - # 35
    frequency:    3.7527278806
  - # 36
    frequency:    3.7860916091
  - # 37
    frequency:    4.0005026888
  - # 38
    frequency:    4.0328649547
  - # 39
    frequency:    4.1238761471
  - # 40
    frequency:    4.1668822165
  - # 41
    frequency:    4.2158072951
  - # 42
    frequency:    4.2642029724
  - # 43
    frequency:    4.3088463440
  - # 44
    frequency:    4.3737310058
  - # 45
    frequency:    4.5304491504
  - # 46
    frequency:    4.5898022616
  - # 47
    frequency:    4.7348570827
  - # 48
    frequency:    4.7548455404
  - # 49
    frequency:    5.0413643272
  - # 50
    frequency:    5.1038357259
  - # 51
    frequency:    5.1390494204
  - # 52
    frequency:    5.1778653183
  - # 53
    frequency:    5.2373528558
  - # 54
    frequency:    5.2798395294
  - # 55
    frequency:    5.4073920242
  - # 56
    frequency:    5.4348025152
  - # 57
    frequency:    5.5645775785
  - # 58
    frequency:    5.6196019173
  - # 59
    frequency:    5.7548736980
  - # 60
    frequency:    5.7867859605
  - # 61
    frequency:    6.0445087454
  - # 62
    frequency:    6.0918957140
  - # 63
    frequency:    6.2135356895
  - # 64
    frequency:    6.2921567931
  - # 65
    frequency:    6.4133481513
  - # 66
    frequency:    6.4687759384
  - # 67
    frequency:    6.5716630803
  - # 68
    frequency:    6.6211954798
  - # 69
    frequency:    6.7105908890
  - # 70
    frequency:    6.7646602510
  - # 71
    frequency:    6.9123922337
  - # 72
    frequency:    6.9681512686
  - # 73
    frequency:    7.0742022376
  - # 74
    frequency:    7.1137481682
  - # 75
    frequency:    7.3310041003
  - # 76
    frequency:    7.3714789431
  - # 77
    frequency:    7.4851292023
  - # 78
    frequency:    7.5440076781
  - # 79
    frequency:    7.7267911613
  - # 80
    frequency:    7.7615132650
  - # 81
    frequency:    7.9340741177
  - # 82
    frequency:    7.9784212993
  - # 83
    frequency:    8.1184138696
  - # 84
    frequency:    8.1421975396
  - # 85
    frequency:    8.2862279068
  - # 86
    frequency:    8.3146290207
  - # 87
    frequency:    8.3393730960
  - # 88
    frequency:    8.3740896335
  - # 89
    frequency:    8.4731880065
  - # 90
    frequency:    8.5145671661
  - # 91
    frequency:    8.5284285626
  - # 92
    frequency:    8.5590043325
  - # 93
    frequency:    8.9578895688
  - # 94
    frequency:    8.9884748196
  - # 95
    frequency:    9.2948285602
  - # 96
    frequency:    9.3515512062
  - # 97
    frequency:    9.5142471678
  - # 98
    frequency:    9.5934779540
  - # 99
    frequency:    9.6397279638
  - # 100
    frequency:    9.7275859080
  - # 101
    frequency:   10.3739988904
  - # 102
    frequency:   10.4858810426
  - # 103
    frequency:   10.8959619436
  - # 104
    frequency:   10.9254250464
  - # 105
    frequency:   11.3229337506
  - # 106