  52   52
1 1
     2.846300242855318    -1.219998119660194    -0.158636276665362
    -1.220955523734916     2.286602086558947    -0.155786018828481
    -0.156504835794894    -0.149349621271061     5.643929002891580
1 2
    -0.021378394664403    -0.001358811708667    -0.011320169403613
    -0.014815186917807    -0.004312312822344    -0.035653099568858
    -0.031285206517489     0.035435631556482    -0.169324617675600
1 3
     0.038120984227502    -0.057832777985509     0.029247004117873
    -0.021702178745419    -0.013361140410135    -0.063153856759450
     0.072603728829390    -0.206758042010558    -0.037148370175705
1 4
     0.201258964454191     0.067992112414952    -0.004127889499285
     0.064481096337811    -0.138818832829495     0.513738697564040
    -0.000399521573993     0.449941597254104    -0.219378600522283
1 5
    -0.284721359899620    -0.008555304421358     0.580429570308261
    -0.011150728806386     0.254057770757189     0.105658340579692
     0.508774036266339     0.091711633915061    -0.193195690846910
1 6
    -0.237436685444722    -0.144173916853052    -0.309601904160642
    -0.175414345687552     0.048060397172604    -0.113596984696279
    -0.301569006854044    -0.088567691610929     0.034693713050079
1 7
     0.014802768268225    -0.006958265774140    -0.000000241008260
    -0.005974654369977    -0.018896653833699    -0.004229353871072
     0.001732598225105    -0.003651495181104    -0.027442986807323
1 8
     0.164333874293395    -0.043700628168757    -0.034719442036053
     0.045709676859596    -0.214052085581358    -0.024141596363611
    -0.028763684350691    -0.003427890849822     0.026296171303370
1 9
     0.079856011169744     0.062245757872593     0.098739301433107
    -0.008848851214353    -0.045280243274694    -0.061348576516536
     0.000200651781620    -0.019376472783601    -0.079636135044071
1 10
     0.051392243182089     0.020451831383510    -0.068667402848259
    -0.053162862211097    -0.069508905411504     0.083479435452145
     0.010840320481951     0.000833306444218    -0.069137615967540
1 11
     0.010017551045416    -0.003534761848378    -0.034963474449828
    -0.013239609054162    -0.060508654732693    -0.005888856252430
    -0.003109368914660     0.019074949375090    -0.022476607934229
1 12
     0.024743237809038     0.010829619898097     0.025036786807876
    -0.007959968029113    -0.044007061639475     0.005144356010416
    -0.000443288602615    -0.020774349916705    -0.008938613834171
1 13
    -0.019309133718097    -0.006872303261763    -0.003671821586061
    -0.006301067101193     0.015465952173525     0.001291877257510
    -0.003773749410929    -0.000439707247702    -0.027412969566991
1 14
    -0.099372661529771    -0.031761623811504    -0.006227438633801
     0.028056979420615     0.062000156297406     0.013088955673531
     0.012195208033891     0.014814030997612     0.022919558230772
1 15
    -0.029510624743603    -0.008612370037767    -0.020578698910921
     0.051772354960862     0.003688341399723     0.029936235220486
    -0.021358708327660     0.010069119153792    -0.039882399250752
1 16
    -0.060045614194677    -0.004960411428886     0.024183333499986
     0.014912415098852     0.008342874040845    -0.027129514061893
     0.018078254139855    -0.006370438025368    -0.039647915879400
1 17
    -0.060343330808233    -0.056820525020436     0.080367455906308
     0.018221243783135     0.073780462256651    -0.049249571343956
     0.004694884270213     0.020215877099773    -0.064477976877832
1 18
    -0.189571296199787     0.000050465696580    -0.267281028833492
    -0.028575629089359     0.214882308558505    -0.097832744616423
    -0.182406023889795    -0.073132874543642    -0.104005923106345
1 19
    -0.066649795598013     0.002669723149717    -0.012903734860592
     0.002585066535375    -0.065904917158276    -0.014921476784365
    -0.012763908431632    -0.015031712256597     0.052292834492864
1 20
    -0.012319638862492    -0.002830948315471     0.002851309841451
     0.006372295635908    -0.020205848378706     0.006885027883804
     0.003905597585347    -0.003927220484043    -0.000658017023325
1 21
    -0.034079199207954     0.027119118658572    -0.018905434809308
     0.006947859761529    -0.007656975813654     0.021280440992271
     0.001473484389886    -0.001727744332256     0.016071125163705
1 22
    -0.055995750925199     0.016649507787326     0.009014578186146
     0.011439300104402    -0.034444355072124    -0.028685326619415
    -0.005505778146444    -0.004037559786253     0.009933782641214
1 23
    -0.023443492920368     0.009897565670513    -0.028344152379672
     0.008344287932692    -0.064477580587592     0.000666605051010
    -0.005402656561772    -0.011951340951222     0.011622981305629
1 24
    -0.057785311847584    -0.087615157098972     0.115494096713799
    -0.003750529911133    -0.159576445407415     0.101517916735299
    -0.001260430285059     0.008790205864274     0.008502301555579
1 25
    -0.434856891401011     0.396641226755140    -0.294622908042517
     0.277101414602861    -0.183737459975739     0.044064975440666
     0.131564847317331    -0.211759395617634     0.586446384582569
1 26
    -0.024413643427422    -0.010638269633411     0.003309009340459
    -0.007869013570321    -0.036718708513808     0.005050898614949
    -0.028889222801278    -0.014419271776164    -0.097920455562428
1 27
    -0.015808424483261     0.040752267267888     0.013118281537346
     0.014575695261004     0.009042442354943     0.013195837264766
    -0.046850679236285    -0.036469382488742    -0.104889005573368
1 28
    -0.228666342855972     0.263982850669152     0.040291760620403
     0.360180819293201    -0.503615354790878    -0.316659375152275
    -0.234251503571097     0.152894015220396     0.601246455583846
1 29
    -0.384722722937524     0.595912944570482    -0.518181722112447
     0.573813314723817    -1.051515420298266     1.050387553720210
    -0.481081227270714     0.914076963533565    -1.333456178369760
1 30
     0.130260377128266    -0.114113088626668    -0.059281035605055
    -0.113529950811027     0.003713511212175     0.093975982718269
    -0.002491388312457     0.063971409963999    -0.125282576235075
1 31
    -1.071766723977766     0.592944332206246     1.030163941088044
     0.662628985612328    -0.379225158509936    -0.542727530204654
     0.972085445483003    -0.494913384331419    -1.327305325052861
1 32
     0.137633761517042    -0.042073878957671     0.097269898376771
    -0.045731186108949    -0.050179434610947    -0.069532890436017
    -0.020552336314974    -0.035256976423588    -0.145182341545796
1 33
    -0.387235901008291    -0.040431636492168    -0.258297772024430
    -0.051689854149003    -0.424787950436832    -0.463076536869004
    -0.287797780035592    -0.355996221001990    -2.726909329355882
1 34
    -0.001279086105940    -0.004375393584776    -0.038058384312671
    -0.018976530446805    -0.007418172570048    -0.057817945637638
    -0.026420671249679    -0.034040723352908     0.059485476956273
1 35
     0.009058619582089     0.002024304861440     0.008134690846261
     0.006386346324327     0.004473779084860     0.009398844354312
    -0.006980717801473    -0.004066157798419     0.025886950375217
1 36
     0.006092738172726     0.010614860063087     0.003419656596973
    -0.005411938142852     0.004378283709143     0.000651201217927
     0.032988171426659     0.046021473005034     0.050674143642114
1 37
     0.007280669315394     0.006693904206696     0.000473980549884
     0.004009466458734     0.006288860496317     0.000689803378174
     0.021245058529094     0.017750531952428     0.032665086439946
1 38
    -0.083851523552876    -0.065784616208551     0.015680944328648
     0.008857204484229     0.113432374716278     0.018615586166547
     0.003339479845490     0.005030206101322     0.040990774207409
1 39
    -0.000913459297962    -0.001173337564241     0.011976372722607
     0.017618373160748     0.014353225041489     0.007690073107294
     0.054180209413297     0.028460107888779     0.045647638928259
1 40
     0.017000473444095     0.011612392511437    -0.011250783658848
     0.010274554356431     0.021417872510521    -0.009170057847416
    -0.001495229279554    -0.002975755093847     0.079411751154115
1 41
     0.004587777992306    -0.018362668622339    -0.035835113687685
     0.003063433451847    -0.007039703805690    -0.022309394832079
    -0.033500677352995    -0.021909971220150     0.053570282407976
1 42
    -0.017264705859047    -0.023325333191526     0.044424360692884
    -0.017729611095891    -0.002701252476016     0.044329923612148
     0.031138041389436     0.032397611310940     0.109043811229052
1 43
     0.118903997932729     0.018919887852120     0.009758569096851
    -0.076411466445728    -0.078456187098767     0.008550932232044
     0.010379667904117    -0.000728753600714     0.043585275252318
1 44
     0.124734130395754    -0.130474658958863     0.004148230846596
    -0.014488779570411     0.050152636967843     0.029385075234781
    -0.111731816133670     0.148000650409683    -0.058025685877647
1 45
    -0.020744392715529    -0.135384879339086     0.092436528068902
    -0.130660662954114     0.123938009697708    -0.055334764704959
     0.056861895573985    -0.009856952669241    -0.109084624037003
1 46
     0.059035409948243    -0.019855529161303     0.033088397993115
    -0.106130224011350     0.157528676415643     0.006077972899786
     0.142075243806141    -0.132024340579189    -0.059208848403914
1 47
    -0.019603419724761    -0.018488054839641    -0.065696030745061
    -0.016868444913332     0.196264669207109     0.078594675253405
    -0.015766549895484    -0.033386595486635    -0.121689708678549
1 48
     0.073624797990053    -0.008092747908712    -0.003593382327237
    -0.006144248493834     0.075297088420358    -0.013362881704758
     0.004034201020611     0.002622599690871    -0.023983292631429
1 49
    -0.283049097242727     0.103449229583971    -0.085682770477107
    -0.049786072822113    -0.144500038251060    -0.072690698589232
    -0.071819858103571    -0.087860428659835    -0.292023905495105
1 50
    -0.004330016486422    -0.006476714311392     0.021159673895482
    -0.005155398866852     0.032451444158827    -0.029348508719798
    -0.012901600299228     0.011649689914496     0.050833081117016
1 51
     0.029134857506943     0.001865986936150    -0.052534845925048
    -0.004566046531555    -0.012012959214507     0.035925908888596
     0.023957665738883    -0.013033609342290     0.065019591364952
1 52
     0.082295153410475     0.061316842779536     0.008766125587220
     0.045648379646298     0.063306590297050     0.004374428456520
     0.018728733868085     0.023460470041710    -0.043042456544557
2 1
    -0.022687533484420    -0.013085870137280    -0.029413225212388
    -0.000534254832014    -0.005781723019783     0.036500147814873
    -0.010917050190545    -0.034971653734413    -0.172891361305599
2 2
     1.597294802360256     0.266529171968434     0.722078914060409
     0.269624750144786     2.276007836304371     0.023475803447557
     0.724068162176698     0.034726940397845     4.508817628093415
2 3
    -0.000275149393841     0.120729230782806    -0.039651346221685
     0.093112937076317    -0.112912393091079     0.140207985446427
    -0.062559239882399     0.222948885583860     0.085721064528173
2 4
     0.083919120643420    -0.084750656820803    -0.088468447773515
    -0.113413618958997    -0.006902051540230    -0.343532072105955
    -0.128655706979003    -0.337020254455562    -0.234894358199814
2 5
    -0.064775961596699     0.018329730993856    -0.063807925857607
     0.060428386287495     0.035545374623282    -0.024997193275231
    -0.208320884638609    -0.066448473035045    -0.020232207070179
2 6
     0.104101546892821    -0.019306234062184     0.143462837359517
    -0.039155074577246     0.020888077766194     0.091351603239641
     0.227188048657114     0.110229538004297    -0.143359613105226
2 7
     0.059459556134854    -0.030984565690741     0.015574795236625
     0.030113136567186    -0.103410414983346     0.013262980751028
     0.014307544837703    -0.006154984043784     0.023401985688239
2 8
     0.022894967089458    -0.009658323022048    -0.004760107913647
    -0.009544775702334    -0.008532758797815    -0.006619841324061
     0.013369754834994    -0.008882923464537    -0.041350480971481
2 9
     0.234129726698158    -0.015351614308969    -0.059382756800076
    -0.047571142534892    -0.168943987838919     0.257979721572162
    -0.030194560092128     0.162500711012113    -0.128424062052530
2 10
     0.082089267378137     0.017458407152563     0.003713592032447
     0.098590981298797    -0.071034693886539    -0.063234893017546
     0.071105544129728    -0.023875613279716    -0.046922936749954
2 11
     0.014834691241389    -0.023897095579022     0.020145001327792
     0.008470813612549    -0.034404341040300     0.007215715464571
     0.001022432676034     0.028004019211233    -0.020233169984007
2 12
     0.006674805501011    -0.016360389025879    -0.025637925032800
    -0.005290854855316    -0.095521808871564    -0.046612323313847
    -0.015382279340705    -0.034666562659773    -0.055599086302164
2 13
    -0.217173678534249    -0.043268422838220     0.000205526563411
     0.047011782951290     0.165727818564919    -0.028860187913131
    -0.022597935211504    -0.033294665187644     0.027095122260279
2 14
    -0.008614012151029    -0.009458789655334    -0.008122143281252
    -0.010338394153300     0.023684817945378     0.013613266571116
    -0.005645531699871    -0.005319948873659    -0.041697310265036
2 15
    -0.045814984449213    -0.007495709346876    -0.004920599568771
    -0.019675486264677     0.035089347927246    -0.029054406272476
    -0.020351125003818    -0.000157225470952    -0.007741484639748
2 16
    -0.163802318428754     0.021782515231994    -0.112507660470843
     0.090131289957527    -0.016692007446110     0.127671754754935
     0.012179579747334    -0.003154306646759    -0.042571365336197
2 17
    -0.067784727331925    -0.079599962696645    -0.223037138911977
    -0.071411927092396     0.214974952597639     0.023929275865767
    -0.137543212797106     0.006868798359064    -0.169110566767954
2 18
    -0.097571299631063     0.059767081530115     0.080412161269760
    -0.020956313497975     0.023032706166376     0.072659411015313
     0.000367926090703    -0.017400949060530    -0.090592374937796
2 19
    -0.014138060982101     0.007774993456871     0.004504681085026
    -0.001495523656013    -0.022125981659649    -0.003395730814961
     0.003359444021132     0.007480944349159    -0.001196396989465
2 20
    -0.058015311341014    -0.033410099008032    -0.020327375375108
    -0.033799497919766    -0.064751773992235     0.022529166647221
    -0.020527834568001     0.022568644082799     0.055308051227819
2 21
    -0.131282037961837     0.014789916774281     0.101873000797599
     0.061182126468637    -0.040703679082236    -0.104164720905498
     0.011757299197759    -0.004388730023109     0.065197409414151
2 22
    -0.038942990526008    -0.021743738709894     0.056920256758355
    -0.022094543908611    -0.040837691190271     0.032922143742561
    -0.006188143156338     0.010713700720345     0.005437701237357
2 23
    -0.003060544114512    -0.006059622292224     0.022926999715873
    -0.021861389116047    -0.041813323861344     0.025211601367192
    -0.000071926580188    -0.001019112212013     0.021422385209386
2 24
    -0.043989035340243    -0.016972348619005    -0.021571067475398
    -0.019964757813276    -0.015781671925412    -0.052512708188337
    -0.010473141330020    -0.004146863757197     0.022091574821240
2 25
     0.048056439772299    -0.021731462417274    -0.001944133148089
     0.011047776495473     0.015952707684558     0.001045920392442
    -0.027198416731944     0.016736847225179    -0.128102171405457
2 26
    -0.026601120391540    -0.331389739993074    -0.129651101024099
    -0.430351841122538    -0.518303302092461     0.257870105421256
    -0.307185909247049    -0.089496545839275     0.620562335105962
2 27
    -0.542809643682409    -0.360111244923274    -0.308483124445064
    -0.258768151702243    -0.113342773338564     0.018890391642535
     0.134014922898043     0.288139223125267     0.605931880115743
2 28
    -0.075221040018307     0.006512730725413     0.006746412298543
    -0.018912675299503    -0.034776965463897    -0.005380052732220
    -0.011077434391975     0.037762729325086    -0.102446117486507
2 29
     0.043053104649673    -0.019156164357693     0.005490314077620
    -0.005510372797513     0.013269587870117     0.005973554041546
    -0.001809722230562    -0.006181363670636     0.088082023546548
2 30
     0.022625364414398     0.004407398001794    -0.000641366410207
    -0.006267531772510     0.012339947567391    -0.005597711807494
     0.059897835752192    -0.035236065480769     0.055450968491069
2 31
    -0.038543659350352     0.032367955414041     0.069220800326768
     0.021311265132841    -0.012194287061683    -0.060016100809810
     0.021751171724252    -0.026019514437558     0.120967320593100
2 32
    -0.025262966022158     0.010004148056825    -0.040988555194815
    -0.009051806042973    -0.024902555515097     0.010554177675742
    -0.029783215065894     0.028928307052380     0.067674292343962
2 33
    -0.431140299307327     0.161163970291333    -0.644718163297669
     0.185146642867953    -0.429946275597558     0.525017995765203
    -0.627422347344053     0.463100110210264    -2.326145097309346
2 34
     0.042459976835666     0.136783429042214     0.077127568731626
     0.158631216614678     0.113694489768473     0.039026811666890
     0.092836435304455     0.014682446782106    -0.146823104533002
2 35
     0.191659131556301     0.109498524923359    -0.008699308971966
    -0.002587509527954     0.046467577450846    -0.043696523994965
    -0.098228603125627    -0.139807371373225    -0.054612876485185
2 36
    -0.071582657397922     0.034772401647734    -0.050904080154712
     0.007785507429521     0.134047296005168    -0.097256956135131
    -0.023315305918316     0.015335354951621    -0.154948523016023
2 37
     0.000998110812024     0.009662940993747     0.061930331907248
     0.147973203512811     0.127681231372981     0.005204161223633
     0.145079652737007     0.074938723404323    -0.075860657117974
2 38
    -0.087459581634808     0.061911291544133     0.010762668167605
    -0.022680591260875     0.125332960190656    -0.007441580675191
    -0.019081691427741     0.004739961070462     0.048664447606473
2 39
     0.095947802330126     0.192891273253812    -0.057466964432799
     0.166983377223813     0.019925734663992    -0.086991230430450
    -0.028825014283174    -0.088652015387868    -0.137033304583955
2 40
    -0.179411500728034    -0.197275762294562    -0.158988013155920
    -0.158734240954197    -0.901009758056888    -0.843297623481555
    -0.113270498591094    -0.706275105045395    -1.112596417509062
2 41
     0.199322991375335    -0.001473269018277     0.065692350593775
     0.013778627355126    -0.032112027426442     0.063115102716264
    -0.007476437513924     0.022253972697766    -0.129005969471721
2 42
    -0.449761558498366    -0.078884862436239     0.524922297378752
    -0.093153966887101    -0.134255608999826     0.095557942101916
     0.365524030700534     0.055182632027300    -0.884631273360947
2 43
     0.141924328776326     0.019640685482782     0.060972871322687
     0.017708946311876    -0.118027000724638    -0.048093318629778
     0.018637304659432     0.009391576312032     0.050058971925028
2 44
    -0.012164068021207    -0.014226030248924     0.034486065937164
    -0.011071955376219     0.012485470530948    -0.024160721954641
    -0.012880802115281     0.013569305813446     0.040522275300195
2 45
    -0.028008645414171    -0.002209226305339    -0.005758499654824
     0.001342315940743    -0.000873723886323     0.043792520574331
    -0.030236196397693     0.032745362990316     0.071850935046752
2 46
     0.014845353325729    -0.006735551362240     0.003150111719298
    -0.003065019086710    -0.004548799600547     0.000702279459587
     0.013646917903968    -0.018317368424707     0.034662891681639
2 47
     0.022183260644786    -0.015705823648136     0.005913788654268
     0.009362372200945     0.005920425271473    -0.000835153836796
     0.014487227205661    -0.045632354709096     0.036968972167935
2 48
     0.060460195648283     0.023080947917188    -0.016987906450662
     0.027390679653889     0.068528402783623     0.010655265943771
     0.008170850931378    -0.015425142948218    -0.034694674962572
2 49
     0.006165033741035     0.016143045251116     0.004794121168957
    -0.026599330943455    -0.046710849546451    -0.019468265188440
     0.054594538458981     0.078554980075682     0.084982088738192
2 50
     0.022982798890971    -0.017258710665610    -0.018426734491530
    -0.038491883407041     0.056364063081479     0.008702935554284
     0.001785777344876    -0.007181688452595    -0.034162826102202
2 51
    -0.162151926091148     0.155332344257748     0.048088257418085
    -0.021996527371083    -0.341379994969930    -0.032768910044291
     0.023125139395973     0.025514323396213    -0.233510376430569
2 52
    -0.010036064887795    -0.003772845210358    -0.005850055181787
     0.017222823330519     0.015573398370025     0.003348484972041
    -0.015057375531387    -0.028491236506123     0.030517839309020
3 1
     0.035353978368131    -0.015504627682327     0.075124021115098
    -0.051423576537786    -0.025762300099922    -0.219284713898383
     0.032377214624940    -0.076312681748809    -0.059801450298138
3 2
    -0.000617016403946     0.090305055017421    -0.064041597133067
     0.118985041993991    -0.110833942008649     0.226541190245934
    -0.040512897029182     0.139877113352077     0.084644381396436
3 3
     1.273703444894357    -0.339163788238857     0.324994971062650
    -0.345268071391288     3.704253565123481     0.261610659724905
     0.323823897608049     0.266186316794639     1.451705131467460
3 4
    -0.007127984730806     0.043348056644238     0.001547178087533
    -0.030911276986145    -0.165197610766702    -0.001898868462956
    -0.007103717823136    -0.017432661719533    -0.016916478367806
3 5
     0.096395240601393    -0.192145867093881    -0.043761347429286
    -0.227703285420374    -0.194409003497659    -0.120647042158702
    -0.039383825668718    -0.089918322215306     0.048649897511005
3 6
    -0.128547734748809     0.106766381927683     0.069472661144563
     0.208400601781124     0.105503755938078    -0.036927734531551
     0.085883342287593    -0.016952214044754     0.018256783370523
3 7
     0.214322352708004     0.004131573843579    -0.071006794100765
    -0.027319225242609    -0.190894409147657    -0.182862214322673
    -0.096593789905769    -0.268386497200128    -0.104007387608085
3 8
     0.023231737298218     0.059472015797333    -0.018158932466674
    -0.022805572074345    -0.101032899847490     0.004251029095608
     0.071956911481945     0.083767902103710    -0.093980299343323
3 9
     0.020658349325454     0.004833423355160    -0.013262089437404
    -0.004919989211204    -0.041978273778596    -0.002439261623543
    -0.010750454609778    -0.007219526139803    -0.006819758387180
3 10
     0.145722452834874    -0.026486949970517     0.019666537015502
    -0.031826643528583     0.040138384740602    -0.016255957264915
    -0.056790849679845     0.008668845975257    -0.224773417678431
3 11
     0.020105780156386     0.096584394491137     0.068270272175938
     0.003937728334648    -0.045023168957147     0.005252567165496
     0.000712391157671    -0.082712736183314    -0.150175807241472
3 12
     0.024507696299293    -0.026487981649165    -0.025208284185281
    -0.002370498452719     0.000730125278615    -0.021298588652771
    -0.004465099140078    -0.008482824037103    -0.048162002326466
3 13
    -0.044076574100194     0.011751884019635    -0.022307965853342
    -0.006622705215809     0.025316698488451    -0.000201244475358
     0.003397954934641     0.026059346773918    -0.009557543944228
3 14
    -0.094506154228329    -0.016706746944209    -0.036232279582218
    -0.005675847892033     0.009468605870103    -0.015220708858268
    -0.047268838093791    -0.025302961654664    -0.055209613724310
3 15
    -0.131575281527290    -0.013792713724888     0.037341240123307
     0.027370749252301     0.065423241213787    -0.014759502534491
     0.092808696475405     0.043999354056520    -0.146970949168138
3 16
    -0.024467160951628    -0.009008351196005    -0.005776219922653
     0.010221554724327    -0.004129552787252     0.007760070880391
     0.009709515651236    -0.000794455100181    -0.012402101195294
3 17
    -0.040794745386189     0.027454024820517    -0.021026437527773
     0.004346782301012     0.012691258617636    -0.003228924743739
    -0.020021416355256     0.046773444990645    -0.029160857344561
3 18
    -0.000396972740780    -0.027294027816876    -0.011348612857966
    -0.001550731792113     0.025902202253368    -0.002118751668678
    -0.024169264784281    -0.022471389935003    -0.047246758849134
3 19
    -0.034915202556440     0.009089483857405    -0.000238171853790
     0.027850714699753    -0.007104912452296    -0.000534337743033
    -0.020988839763304     0.022355193704752     0.014154875653168
3 20
    -0.132918390047568     0.063505439347156     0.009843564825746
     0.016891180575681    -0.041310239222558    -0.004263055087263
     0.098400001298683    -0.103179562886918     0.065345850674741
3 21
    -0.031130966306866    -0.001679486346422     0.008034226718032
    -0.001476419496824    -0.038111816248010    -0.003859689702232
     0.007946539493400    -0.003417960083410     0.019296612627190
3 22
    -0.141538405109173     0.021329967112361     0.014639264109705
     0.002324930199464     0.030049568615127     0.023257945781092
    -0.039694303561257     0.024401276137372     0.077113850267753
3 23
    -0.091389483116090    -0.061347527899015     0.102788274242579
    -0.026164615681119    -0.034847991206761     0.061348859057704
     0.011129774360016     0.000056039714281     0.085916520821693
3 24
    -0.023114261898933     0.049373603286016    -0.013681723985277
     0.023191380857646    -0.102267837276771     0.007647966116925
    -0.077943572159269     0.085102742599403     0.082864898430287
3 25
    -0.048157531885480    -0.011891240748404    -0.014433066899301
     0.020318210724336    -0.098281742147220    -0.024030196657620
     0.001283098241721     0.002602890570484    -0.077589203568527
3 26
    -0.508857499354784     0.384015587314318    -0.400503001156137
    -0.079427578386620     0.529614945837467    -0.269324104396205
    -0.237653936070392    -0.004593926889671    -0.063563001587030
3 27
     0.056698300567109    -0.002387796867669     0.004582084027651
     0.049390873429916    -0.144087426918535    -0.029575353492740
    -0.033615851918559    -0.002119921911558     0.056300420827276
3 28
     0.087602009966242     0.177416855795004    -0.349850883602870
     0.349886084154649     0.670125438974756     0.093886377318279
    -0.399527447292973    -0.220512507230699    -0.627210766470188
3 29
    -0.066478149105907     0.050183593644200     0.030767820333422
     0.016750624198074    -0.151996378178469     0.012678751950522
    -0.005575084309015     0.072721269159283     0.171887187810189
3 30
     0.114941355546011     0.018898289426549     0.257762644861276
     0.029033991398525    -0.162626136512368     0.131410285083241
     0.176103800282440     0.071860337738008     0.067411224205597
3 31
     0.017081965306136    -0.004554837595662    -0.013993485106405
    -0.024443696412775     0.045299926494787     0.049436226455410
     0.000230525036416     0.001791521479346     0.019491987246765
3 32
     0.015765010020289     0.004957283836962     0.010452456632654
    -0.044378893955046     0.045586551819950     0.027985835414137
    -0.011017441676753     0.007922780999272     0.027421993947295
3 33
    -0.470114295471182     0.640592940433134     0.161890351824124
     0.650198124932941    -2.092456452751507    -0.448131271939230
     0.174523197559471    -0.491644029455579    -0.370938178949380
3 34
    -0.020280644029981    -0.047491307911010     0.026231030164815
    -0.045344984037398     0.133268992153870     0.025936344598091
     0.030231930424642     0.059060201712627    -0.045212457649777
3 35
    -0.000104993175464    -0.038087517840321    -0.016538171803503
     0.006730924566962     0.049126086326277    -0.013890693682017
    -0.013973148309633     0.062265669479570    -0.009043173523232
3 36
    -0.473710384641935    -0.606652450138367    -0.014977051373261
    -0.390622882107131    -0.815211343431858    -0.025851733024649
    -0.038597619278430    -0.085030689894452    -0.146193207394931
3 37
     0.209625580458441    -0.000477979570253     0.133753988017009
     0.077916005957484    -0.056618564698560     0.105884740641718
    -0.019076942162913     0.036877961946014     0.016513877022711
3 38
    -0.110056568600097    -0.028239936456345     0.035544601221986
     0.017543615537509     0.051021624807715     0.013090842507381
     0.019909406827386     0.050439815689656     0.151305337066859
3 39
     0.163258280655447    -0.095110807589843    -0.002264334850409
     0.019087718403556    -0.137798550976344    -0.021106016303657
     0.035454405379299    -0.061062844340660    -0.049824831642874
3 40
     0.038838540586250    -0.083845332354276     0.146375267636121
    -0.069567888813456    -0.119135772708228    -0.004269029164962
     0.152828218933934    -0.054911228488972     0.075521278024942
3 41
    -0.016145402917389     0.042729785662194    -0.007893024769222
     0.027328104909264     0.081730737086693    -0.031018088930971
    -0.010774590431012    -0.005978034818799    -0.026665469591737
3 42
    -0.030267189375681    -0.002022549810008    -0.005843708291473
     0.023279899540918     0.069989738138920    -0.027544691921793