52   
312  

1    
  0.0099985361560776  -0.0001228546415266  -0.0001190859885328
  -0.0310981496    0.0088088050    0.0011890866
  -0.0007299365    0.0006060488    0.0013456696
  -0.0034264250   -0.0008389763   -0.0035278221
  -0.0002834292   -0.0010429886    0.0016305248
   0.0028521751    0.0015457730   -0.0052478071
  -0.0000685946    0.0034496132    0.0036126509
  -0.0023810756   -0.0016681451    0.0003284361
   0.0003667542    0.0000431518    0.0013184732
   0.0007354895   -0.0039579372    0.0007717903
   0.0008577944    0.0005829771    0.0035124194
   0.0003731883    0.0010213021    0.0004980539
  -0.0023112477   -0.0013553983   -0.0063619185
   0.0007246500    0.0000114934    0.0010241591
   0.0016882224   -0.0023431879    0.0017697026
   0.0000583481    0.0012422555    0.0011129603
   0.0003555584   -0.0017866770   -0.0006310137
   0.0006262521    0.0011073678   -0.0020044202
  -0.0015315020    0.0016410026    0.0030673892
  -0.0011965127   -0.0015606549    0.0006042104
  -0.0005921867    0.0005713605   -0.0005440325
  -0.0012576922   -0.0017715601   -0.0003016648
   0.0037148704   -0.0003245561    0.0012778561
   0.0014654067    0.0010869481    0.0000632194
  -0.0015377463    0.0016614950    0.0002693544
   0.0004861168   -0.0078108323    0.0064587403
   0.0045643369    0.0037797763    0.0039341472
   0.0019553771   -0.0024894124   -0.0009067501
  -0.0002986483   -0.0046988943    0.0024218551
   0.0035407606   -0.0030674205    0.0045757173
  -0.0014537442   -0.0011675996    0.0018300041
   0.0149320347   -0.0068353906   -0.0111585504
   0.0011569741    0.0025768014   -0.0045312742
   0.0049752875    0.0038340348    0.0021345830
   0.0005482350    0.0023864914   -0.0009345876
  -0.0023042745    0.0016276091    0.0022170995
   0.0001827066   -0.0005985456    0.0008273028
   0.0019166460   -0.0006127335    0.0007898103
  -0.0001513942    0.0008166969    0.0012894120
  -0.0057421157   -0.0027609394   -0.0027532864
  -0.0001200294    0.0003636454   -0.0027530433
   0.0010793811    0.0009763713    0.0024644616
   0.0004515605    0.0005749062   -0.0036770879
  -0.0004904604    0.0006749469   -0.0011038232
   0.0024136241    0.0051031800   -0.0007907031
  -0.0025250644    0.0010216087    0.0019117584
   0.0036474096    0.0031899997   -0.0028187398
   0.0045837673   -0.0035990983   -0.0018952816
  -0.0003887647    0.0008219511   -0.0003972887
   0.0033344959   -0.0004015782   -0.0006290885
   0.0005080634    0.0012225271   -0.0018206328
  -0.0013223400    0.0004484456    0.0011111755
  -0.0028841532   -0.0021060597   -0.0005732068

1    
 -0.0099985361560776   0.0001228546415266   0.0001190859885328
   0.0261567973   -0.0161138541   -0.0032891221
  -0.0011463503    0.0005714964    0.0011683881
  -0.0026760766   -0.0019429356   -0.0029186024
   0.0037254124    0.0002436002    0.0014739986
  -0.0029598544    0.0012904244    0.0063791375
  -0.0047017070    0.0005758425   -0.0025588320
  -0.0020840082   -0.0018017773    0.0003360066
   0.0036485700   -0.0007773219    0.0006238548
   0.0023345024   -0.0026974636    0.0027803282
   0.0018959696    0.0010088344    0.0021352274
   0.0005775037    0.0009609416   -0.0001943130
  -0.0018143940   -0.0011230768   -0.0058603912
   0.0003409709   -0.0001296279    0.0009569450
  -0.0003087384   -0.0029970897    0.0016364972
  -0.0005394119    0.0010667289    0.0007035898
  -0.0008531479   -0.0018864033   -0.0001313088
  -0.0005860331   -0.0000518197   -0.0003698485
  -0.0052719076    0.0016066314   -0.0022286392
  -0.0025269086   -0.0014874947    0.0003373852
  -0.0008410393    0.0005206499   -0.0004885497
  -0.0019412345   -0.0012269642   -0.0006887747
   0.0025936199    0.0000178102    0.0014628036
   0.0009958419    0.0013035597   -0.0005065127
  -0.0026920616   -0.0000534358    0.0025519293
  -0.0083091693    0.0002164122    0.0004166424
   0.0040849496    0.0035794984    0.0040223985
   0.0016468320   -0.0016680221   -0.0006226836
  -0.0049040133    0.0006673178    0.0031621784
  -0.0041789787    0.0088897533   -0.0057268982
   0.0011795708   -0.0034656759    0.0006513050
  -0.0068944996    0.0052328137    0.0098911926
   0.0039253779    0.0017561738   -0.0025344977
  -0.0026870508    0.0032146832   -0.0022673606
   0.0005336124    0.0023089266   -0.0016956052
  -0.0021230352    0.0016679584    0.0023712946
   0.0002980165   -0.0003983163    0.0008834568
   0.0020561929   -0.0004846479    0.0007913392
  -0.0018311508   -0.0005278722    0.0015886481
  -0.0057776155   -0.0027947078   -0.0025265555
   0.0002177619    0.0005913054   -0.0029946865
   0.0011783494    0.0006161197    0.0017405869
   0.0001032571    0.0001014153   -0.0028255942
   0.0019035743    0.0010727402   -0.0009211623
   0.0049381130    0.0024464963   -0.0007011508
  -0.0029213299   -0.0017137976    0.0037997955
   0.0048201838    0.0027856854   -0.0021444603
   0.0041996562   -0.0040090776   -0.0031993383
   0.0010840645    0.0006409940   -0.0004601503
  -0.0022963190    0.0017235344   -0.0022550803
   0.0004258153    0.0010822635   -0.0014023971
  -0.0007443123    0.0004918158    0.0000363192
  -0.0012541680   -0.0009010450   -0.0003887333

1    
 -0.0001248149167587   0.0099984990515443  -0.0001201580327021
   0.0103542506   -0.0268820525    0.0010973081
  -0.0007955188    0.0006376807    0.0015948593
  -0.0028265151   -0.0012813851   -0.0025830079
   0.0011042247    0.0010103430   -0.0035518322
   0.0000835304   -0.0011018481   -0.0004660921
  -0.0006924315    0.0014931095    0.0016166322
  -0.0021702474   -0.0015469959    0.0003709251
   0.0015660996    0.0017584234    0.0012099175
   0.0016356515   -0.0028664281    0.0023963289
   0.0019157978    0.0014941766    0.0019718916
   0.0006085400    0.0015979682    0.0002031749
  -0.0019792981   -0.0008005437   -0.0061613691
   0.0005933670   -0.0002144576    0.0009724809
   0.0003995192   -0.0032926676    0.0015748031
  -0.0007660090    0.0011188854    0.0006004094
  -0.0004025292   -0.0019216107   -0.0001129888
  -0.0001678138   -0.0002141847   -0.0006944251
  -0.0031627778   -0.0005310027    0.0013583428
  -0.0018981693   -0.0008670568    0.0006244738
  -0.0007814665    0.0007474840   -0.0005854862
  -0.0016716409   -0.0014187766   -0.0007102069
   0.0030336920    0.0001917677    0.0016572999
   0.0011447792    0.0018383684   -0.0002305799
  -0.0020860588    0.0023901287    0.0004096343
  -0.0067090956   -0.0019236156    0.0030364214
   0.0043999590    0.0040425873    0.0039150116
   0.0016435255   -0.0021660045   -0.0009086235
  -0.0062870975    0.0030791414    0.0060377623
  -0.0062948553    0.0136989806   -0.0114312386
   0.0010022464   -0.0023423800    0.0002780546
  -0.0027490625    0.0031534563    0.0049164422
   0.0030211085    0.0026504437   -0.0028421328
   0.0015822852    0.0077112679    0.0042093033
   0.0007290090    0.0024163589   -0.0007366190
  -0.0022768629    0.0016022090    0.0022029644
   0.0002983692   -0.0005337540    0.0008550656
   0.0019490668   -0.0006077825    0.0007872446
  -0.0010891219   -0.0009973710    0.0012587492
  -0.0059301175   -0.0029161095   -0.0027083096
  -0.0000515451    0.0002655822   -0.0027751529
   0.0010938909    0.0008595706    0.0023307250
   0.0004564191    0.0003655986   -0.0036807082
   0.0014874378    0.0016607032   -0.0010931535
   0.0038218905    0.0032758196   -0.0010475933
  -0.0014190457   -0.0016054367    0.0034103419
   0.0053192392    0.0013961358   -0.0025467513
   0.0045594663   -0.0057718663   -0.0033562754
   0.0004182810   -0.0000205500   -0.0002986064
   0.0009600718    0.0020710690   -0.0007515842
   0.0005165760    0.0008284345   -0.0013097927
  -0.0009803979    0.0005885064    0.0002154144
  -0.0025106159   -0.0021203206   -0.0005294524

1    
  0.0001248149167587  -0.0099984990515443   0.0001201580327021
  -0.0147341055    0.0191835641   -0.0033346711
  -0.0010789231    0.0005432708    0.0009254216
  -0.0032874575   -0.0014844437   -0.0038442690
   0.0023435089   -0.0018907179    0.0067751502
  -0.0001906423    0.0039586405    0.0015482931
  -0.0040684486    0.0025114476   -0.0005860181
  -0.0022938341   -0.0019222577    0.0002929458
   0.0024460457   -0.0025102430    0.0007295057
   0.0014387184   -0.0037827790    0.0011640311
   0.0008372660    0.0000989015    0.0036749861
   0.0003420341    0.0003842751    0.0000995449
  -0.0021445437   -0.0016782638   -0.0060625992
   0.0004730916    0.0000966362    0.0010058189
   0.0009824503   -0.0020484820    0.0018325895
   0.0002817823    0.0011923713    0.0012137657
  -0.0000936810   -0.0017520091   -0.0006520064
   0.0002104916    0.0012705290   -0.0016838357
  -0.0036430468    0.0037835608   -0.0005063028
  -0.0018267706   -0.0021820114    0.0003167434
  -0.0006519030    0.0003450782   -0.0004483600
  -0.0015245515   -0.0015782476   -0.0002838048
   0.0032777450   -0.0005002020    0.0010790420
   0.0013187904    0.0005494117   -0.0002129674
  -0.0021463303   -0.0007811623    0.0024088139
  -0.0010909631   -0.0056459375    0.0038502028
   0.0042556392    0.0033144442    0.0040387203
   0.0019502008   -0.0019865916   -0.0006228145
   0.0010288140   -0.0070942948   -0.0004490219
   0.0053913383   -0.0076965962    0.0100231639
  -0.0012999300   -0.0022550083    0.0022021978
   0.0105354652   -0.0044589894   -0.0058746661
   0.0020772036    0.0016659814   -0.0042219737
   0.0007144713   -0.0006875714   -0.0043310384
   0.0003562040    0.0022772905   -0.0018975992
  -0.0021497389    0.0016921429    0.0023826613
   0.0001806982   -0.0004599110    0.0008550562
   0.0020223211   -0.0004879609    0.0007930703
  -0.0008918751    0.0012861489    0.0016172398
  -0.0055905953   -0.0026356346   -0.0025684907
   0.0001500306    0.0006916916   -0.0029748019
   0.0011620559    0.0007286469    0.0018806758
   0.0000987070    0.0003096187   -0.0028315374
  -0.0000727385    0.0000872672   -0.0009350708
   0.0035278720    0.0042757252   -0.0004470710
  -0.0040403532    0.0009091163    0.0023069525
   0.0031480733    0.0045829205   -0.0024192411
   0.0042308306   -0.0018345235   -0.0017389741
   0.0002760660    0.0014865556   -0.0005591633
   0.0000524168   -0.0008232077   -0.0021136129
   0.0004176649    0.0014761832   -0.0019141729
  -0.0010847355    0.0003509497    0.0009313137
  -0.0016228295   -0.0008753233   -0.0004338215

1    
 -0.0001124524733482  -0.0001141791713318   0.0099987157954445
  -0.0007353705   -0.0023523077   -0.0583417281
  -0.0006296356    0.0002398794    0.0029496867
  -0.0037796793    0.0006767948   -0.0028496197
   0.0017579190   -0.0049530724    0.0038375903
  -0.0052033479    0.0005289437    0.0025573451
   0.0005850440    0.0028834642    0.0001105755
  -0.0022484061   -0.0017006537    0.0006068710
   0.0023149274   -0.0003595291    0.0007027760
   0.0015425707   -0.0031300556    0.0025806023
   0.0012691836    0.0007832387    0.0035204190
   0.0005061013    0.0007938476    0.0003720078
  -0.0020566520   -0.0010353703   -0.0060173339
   0.0005677530   -0.0000526619    0.0012648974
   0.0005606183   -0.0028134142    0.0014764252
  -0.0000248301    0.0010536680    0.0013081521
  -0.0004346071   -0.0017717364    0.0000142902
  -0.0000301719    0.0003291352   -0.0005411216
  -0.0016151020    0.0023794782    0.0014256031
  -0.0017425749   -0.0013823916   -0.0000539296
  -0.0007568254    0.0005833027   -0.0005093780
  -0.0016171739   -0.0014795722   -0.0006579572
   0.0032048418   -0.0001147059    0.0012655432
   0.0012833545    0.0013084179   -0.0003424686
  -0.0021096715    0.0006913724    0.0013462410
  -0.0052486732   -0.0016484974   -0.0024359960
   0.0046117320    0.0038182200    0.0049590461
   0.0022610079   -0.0017119608    0.0002864844
  -0.0002528855   -0.0035802934   -0.0032323363
   0.0044351227   -0.0061975657    0.0127976231
  -0.0001203738   -0.0029533444    0.0024989764
  -0.0057616073    0.0042247312    0.0128067229
   0.0027616448    0.0025033653   -0.0020794372
   0.0040641397    0.0071453168    0.0277922481
   0.0008046142    0.0026897859   -0.0019195000
  -0.0021411586    0.0016902270    0.0020362911
  -0.0000904397   -0.0009570212    0.0003485062
   0.0017748465   -0.0007238261    0.0004638322
  -0.0010325481    0.0001009481    0.0010304961
  -0.0063017325   -0.0030594651   -0.0030927642
   0.0000679128    0.0005124365   -0.0036709260
   0.0014669083    0.0010125354    0.0015631333
  -0.0000328113    0.0000147482   -0.0043315904
   0.0006073980    0.0008748473   -0.0014495276
   0.0048012416    0.0022924385   -0.0001648594
  -0.0033067498   -0.0002532518    0.0039534037
   0.0028124565    0.0043215164   -0.0018879254
   0.0045464748   -0.0034508194   -0.0013297105
   0.0003153334    0.0007146336   -0.0001890045
   0.0012583801    0.0015914534    0.0014696045
   0.0005952433    0.0010393724   -0.0021218914
  -0.0012705308    0.0005999348   -0.0000787861
  -0.0022332111   -0.0017165375   -0.0000476023

1    
  0.0001124524733482   0.0001141791713318  -0.0099987157954445
  -0.0042263969   -0.0055866976    0.0545936092
  -0.0012470681    0.0009497914   -0.0004256831
  -0.0023314089   -0.0034417770   -0.0035846478
   0.0016899406    0.0040610126   -0.0006658064
   0.0050374077    0.0023068488   -0.0014607419
  -0.0053521036    0.0011337882    0.0008999324
  -0.0022157234   -0.0017677940    0.0000590476
   0.0016923299   -0.0003693690    0.0012419534
   0.0015306439   -0.0035211945    0.0009798866
   0.0014865440    0.0008111759    0.0021342246
   0.0004446923    0.0011899102   -0.0000682584
  -0.0020692638   -0.0014431902   -0.0062028889
   0.0004980693   -0.0000634411    0.0007172392
   0.0008204335   -0.0025241865    0.0019331691
  -0.0004571350    0.0012561193    0.0005083986
  -0.0000629893   -0.0018999184   -0.0007778100
   0.0000731242    0.0007293317   -0.0018373440
  -0.0052135930    0.0008679270   -0.0005717945
  -0.0019834208   -0.0016685378    0.0009981024
  -0.0006774079    0.0005100193   -0.0005247501
  -0.0015816301   -0.0015184733   -0.0003371836
   0.0031047219   -0.0001913256    0.0014687165
   0.0011786824    0.0010819198   -0.0001038163
  -0.0021210242    0.0009232997    0.0014671076
  -0.0025831912   -0.0059303901    0.0093476250
   0.0040413095    0.0035406493    0.0029989908
   0.0013243416   -0.0024524851   -0.0018169901
  -0.0049681361   -0.0004671721    0.0088542985
  -0.0052297752    0.0121877244   -0.0139913987
  -0.0001735659   -0.0016492639   -0.0000144810
   0.0137673337   -0.0057190223   -0.0138437272
   0.0023301394    0.0018192378   -0.0049887092
  -0.0015921816    0.0001324039   -0.0265750948
   0.0002808897    0.0020117369   -0.0007081805
  -0.0022842508    0.0016074374    0.0025499877
   0.0005691046   -0.0000400971    0.0013609411
   0.0021971400   -0.0003718027    0.0011167859
  -0.0009489311    0.0001904314    0.0018424285
  -0.0052220854   -0.0024933498   -0.0021843783
   0.0000318423    0.0004454264   -0.0020782705
   0.0007952494    0.0005801297    0.0026475554
   0.0005978012    0.0006684800   -0.0021711086
   0.0008056718    0.0008739350   -0.0005820814
   0.0025421476    0.0052699630   -0.0013328674
  -0.0021351549   -0.0004482191    0.0017638381
   0.0056645548    0.0016498613   -0.0030807800
   0.0042394452   -0.0041591261   -0.0037663645
   0.0003808516    0.0007517043   -0.0006647491
  -0.0001028044   -0.0001557979   -0.0043342536
   0.0003393956    0.0012663823   -0.0011034173
  -0.0007969489    0.0003416197    0.0012250501
  -0.0018876173   -0.0012756354   -0.0009113114

2    
  0.0099985361560776  -0.0001228546415266  -0.0001190859885328
  -0.0021376735   -0.0036766177   -0.0010266274
  -0.0167661051   -0.0016373666   -0.0055427466
  -0.0030460984   -0.0025777626   -0.0028057060
   0.0008528147    0.0003921021    0.0023681382
   0.0006077912    0.0012396037    0.0011634168
  -0.0034138615    0.0022156360   -0.0009447048
  -0.0028196984   -0.0014386334    0.0001805549
   0.0017773622   -0.0002695486    0.0010136340
  -0.0008163410   -0.0031762000    0.0023883480
   0.0005783768    0.0006126381    0.0027757951
   0.0003287723    0.0012316718   -0.0000514934
  -0.0021311802   -0.0010928169   -0.0058664892
   0.0027164563    0.0003888504    0.0009893891
   0.0007755510   -0.0025713267    0.0017817159
   0.0002115500    0.0012353410    0.0009523404
   0.0014051261   -0.0020574802    0.0007521161
   0.0006820651    0.0013523492    0.0010404271
  -0.0024175512    0.0010297161   -0.0003759456
  -0.0017205638   -0.0016058845    0.0004254276
  -0.0001427645    0.0008774007   -0.0003036188
  -0.0002770956   -0.0016524301   -0.0015215736
   0.0035442770    0.0000616059    0.0007990892
   0.0012591271    0.0012512654   -0.0004478837
  -0.0016760867    0.0009734526    0.0016205066
  -0.0043964560   -0.0035714402    0.0034641039
   0.0044891361    0.0069343105    0.0053949920
   0.0071961192    0.0015310081    0.0024118928
  -0.0018646492   -0.0020842590    0.0027345900
  -0.0007489230    0.0030390033   -0.0005882818
  -0.0003653520   -0.0023481979    0.0012513880
   0.0042433200   -0.0009959873   -0.0011353801
   0.0027960083    0.0020622456   -0.0031143099
   0.0054393460    0.0019258858    0.0062293234
   0.0001433328    0.0009940771   -0.0021003992
  -0.0041445343    0.0005364963    0.0023657034
   0.0009572711   -0.0008241804    0.0013302542
   0.0020174890   -0.0006189440    0.0001585171
  -0.0001215620   -0.0004564648    0.0013341897
  -0.0066990345   -0.0047236369   -0.0020939514
   0.0017754786    0.0022167991   -0.0015382476
  -0.0008620635    0.0008126165    0.0014402236
   0.0046789029    0.0010507193   -0.0084933472
  -0.0007064594    0.0006646517   -0.0016260392
   0.0037912431    0.0039290937   -0.0010935153
  -0.0024423420   -0.0003247665    0.0029270059
   0.0040943467    0.0030490214   -0.0025140576
   0.0041746651   -0.0036524258   -0.0026047775
  -0.0002512747    0.0005094290   -0.0002610347
   0.0004995294    0.0005422355   -0.0014806844
   0.0002329120    0.0013297736   -0.0014328743
   0.0006581749   -0.0011722755    0.0000873162
  -0.0019588744   -0.0014603540   -0.0004167097

2    
 -0.0099985361560776   0.0001228546415266   0.0001190859885328
  -0.0025886263   -0.0039285469   -0.0015825964
   0.0149364125    0.0031249293    0.0078170754
  -0.0030595794   -0.0001888880   -0.0036534836
   0.0025894603   -0.0012206983    0.0007393826
  -0.0006527700    0.0016132370   -0.0001015941
  -0.0013766244    0.0017981819    0.0019358303
  -0.0016414881   -0.0020313591    0.0004831727
   0.0022343554   -0.0004584746    0.0009299209
   0.0038844483   -0.0034803794    0.0011680657
   0.0021787617    0.0009848956    0.0028767692
   0.0006230978    0.0007555835    0.0003543936
  -0.0019927400   -0.0013882496   -0.0063544774
  -0.0016325505   -0.0005091823    0.0009941370
   0.0006071808   -0.0027650274    0.0016258830
  -0.0006949340    0.0010768645    0.0008629256
  -0.0018954877   -0.0016170410   -0.0015189386
  -0.0006231255   -0.0002938743   -0.0033852650
  -0.0043636300    0.0022233678    0.0012357857
  -0.0020037163   -0.0014467526    0.0005166273
  -0.0012897068    0.0002198315   -0.0007288152
  -0.0029201853   -0.0013456285    0.0005256542
   0.0027724338   -0.0003657227    0.0019279433
   0.0012033138    0.0011406073   -0.0000007078
  -0.0025483387    0.0006389207    0.0011967896
  -0.0034317046   -0.0040139118    0.0034554802
   0.0041360961    0.0004561534    0.0025911880
  -0.0036268214   -0.0057109398   -0.0039058241
  -0.0033615644   -0.0019544724    0.0028952202
   0.0001137980    0.0026541479   -0.0005009380
   0.0000743630   -0.0022547026    0.0012267311
   0.0034621428   -0.0003395296    0.0002347687
   0.0023001406    0.0022615281   -0.0039526724
  -0.0030782556    0.0051440377   -0.0062381316
   0.0009313198    0.0036979125   -0.0005326937
  -0.0002878817    0.0027480269    0.0022154866
  -0.0004705324   -0.0001654233    0.0003731229
   0.0019665360   -0.0004749342    0.0014137316
  -0.0018603800    0.0007496553    0.0015396495
  -0.0048145234   -0.0008501577   -0.0031891104
  -0.0017462458   -0.0013385372   -0.0042453470
   0.0031222079    0.0007857454    0.0027690959
  -0.0043791803   -0.0005069022    0.0021907768
   0.0021228215    0.0010841715   -0.0004068660
   0.0035537857    0.0036383152   -0.0004076097
  -0.0029955613   -0.0003765289    0.0027839797
   0.0043887131    0.0029198104   -0.0024594929
   0.0046125145   -0.0039570827   -0.0024951188
   0.0009490760    0.0009578162   -0.0005950979
   0.0006163449    0.0008578168   -0.0014002728
   0.0007015331    0.0009725112   -0.0017953568
  -0.0025844919    0.0020117200    0.0011126078
  -0.0021602119   -0.0015328405   -0.0005417849

2    
 -0.0001248149167587   0.0099984990515443  -0.0001201580327021
  -0.0023577327   -0.0037487260   -0.0016938630
  -0.0034699052   -0.0222337909    0.0014422869
  -0.0039949985   -0.0002189304   -0.0046281080
   0.0028495820   -0.0003807146    0.0049557816
  -0.0006722876    0.0010636716    0.0007704219
  -0.0019697783    0.0017995511   -0.0004053589
  -0.0025238333   -0.0007084485    0.0002027889
   0.0021051035   -0.0002818558    0.0010336255
   0.0020361993   -0.0016114030   -0.0008182589
   0.0004111311    0.0015061259    0.0034517909
   0.0003923920    0.0013374388    0.0000792726
  -0.0020092672   -0.0002922618   -0.0056549453
   0.0000324041   -0.0017240233    0.0012804900
   0.0007916471   -0.0029078361    0.0015629862
  -0.0000531198    0.0008034216    0.0011956708
  -0.0011653930   -0.0016693732   -0.0016787777
   0.0007051773   -0.0016326980   -0.0014837074
  -0.0031926358    0.0014013456   -0.0002959693
  -0.0018486448   -0.0013034937    0.0005056997
  -0.0003893971    0.0011933644   -0.0007375306
  -0.0022244067   -0.0010891050    0.0005642472
   0.0033712225    0.0002527402    0.0010445521
   0.0014503175    0.0016111793   -0.0004711856
  -0.0019207057    0.0009617496    0.0019314175
  -0.0040171376   -0.0039467022    0.0034351453
   0.0085949755    0.0088139114    0.0014707696
   0.0043338404   -0.0009379242   -0.0008976581
  -0.0024349167   -0.0016689265    0.0028574866
  -0.0002563287    0.0027106256   -0.0005935891
  -0.0000722699   -0.0024286741    0.0013018254
   0.0036358400   -0.0005470426    0.0001673215
   0.0026314215    0.0024123849   -0.0036372560
  -0.0008235090    0.0078847475   -0.0056108808
  -0.0010134624    0.0012349381   -0.0017169108
  -0.0021767120    0.0011738238    0.0027179331
   0.0001494150   -0.0018373878    0.0018017607
   0.0005299981   -0.0018124508    0.0007334238
  -0.0007754893   -0.0010973778    0.0015165637
  -0.0074223959   -0.0029594993   -0.0017928258
   0.0016489391    0.0095415637    0.0055766193
   0.0010179096    0.0011176225    0.0014654410
   0.0011675957    0.0016596712   -0.0042433890
   0.0005487265    0.0020577389   -0.0005217867
   0.0037797142    0.0036571347   -0.0004983951
  -0.0027421521   -0.0003376710    0.0024301076
   0.0042768451    0.0030264528   -0.0024891205
   0.0043054431   -0.0038710338   -0.0025360987
   0.0000845972    0.0000491508   -0.0005411340
   0.0008330636    0.0011785106   -0.0012314773
   0.0008582186    0.0005836158   -0.0017077201
  -0.0007806661    0.0038701187    0.0009018788
  -0.0022345745   -0.0016552484   -0.0005113618

2    
  0.0001248149167587  -0.0099984990515443   0.0001201580327021
  -0.0023601292   -0.0038526722   -0.0009150786
   0.0013490428    0.0232046544    0.0006479388
  -0.0021179166   -0.0025605551   -0.0018350712
   0.0005916194   -0.0004165872   -0.0018352953
   0.0006023316    0.0017858653    0.0002913435
  -0.0028333460    0.0021955794    0.0014200379
  -0.0019399422   -0.0027671326    0.0004584969
   0.0019053084   -0.0004479397    0.0009123740
   0.0010337298   -0.0050249950    0.0043862472
   0.0023450750    0.0000870248    0.0021976322
   0.0005578340    0.0006486908    0.0002233988
  -0.0021130380   -0.0021899962   -0.0065672905
   0.0010321423    0.0016088379    0.0006968102
   0.0005884173   -0.0024305712    0.0018472588
  -0.0004302429    0.0015070121    0.0006177586
   0.0006749253   -0.0020078428    0.0009125900
  -0.0006728720    0.0026843756   -0.0009088771
  -0.0035874309    0.0018511926    0.0011586984
  -0.0018758288   -0.0017496855    0.0004369583
  -0.0010458701   -0.0000985602   -0.0002952320
  -0.0009710014   -0.0019056938   -0.0015598330
   0.0029406064   -0.0005610379    0.0016873804
   0.0010139366    0.0007767959    0.0000220994
  -0.0023064431    0.0006513969    0.0008813968
  -0.0038016753   -0.0036262933    0.0034873309
   0.0000696927   -0.0014463665    0.0065106313
  -0.0007374503   -0.0031837894   -0.0005885156
  -0.0027916739   -0.0023750622    0.0027728370
  -0.0003768320    0.0029822449   -0.0004966740
  -0.0002176441   -0.0021745446    0.0011767223
   0.0040663958   -0.0007927188   -0.0010791703
   0.0024638764    0.0019049592   -0.0034322353
   0.0031372732   -0.0008644091    0.0056078540
   0.0021257764    0.0034708129   -0.0009204611
  -0.0022526924    0.0021092997    0.0018594298
   0.0003285740    0.0008307902   -0.0000931427
   0.0034539039    0.0007203694    0.0008402623
  -0.0012026149    0.0013923112    0.0013533729
  -0.0041002540   -0.0025878913   -0.0034851125
  -0.0014532621   -0.0082569516   -0.0109797387
   0.0012454805    0.0004704982    0.0027421571
  -0.0006707714   -0.0010186072   -0.0022509621
   0.0008629449   -0.0003096066   -0.0015107593
   0.0035644403    0.0039070969   -0.0009998839
  -0.0027010517   -0.0003624606    0.0032899971
   0.0042085685    0.0029415738   -0.0024841935
   0.0044836433   -0.0037377562   -0.0025631597
   0.0006152723    0.0014174584   -0.0003154822
   0.0002864979    0.0002215260   -0.0016424035
   0.0000823301    0.0017167620   -0.0015208778
  -0.0011856100   -0.0030013635    0.0002907110
  -0.0018840459   -0.0013360384   -0.0004502758

2    
 -0.0001124524733482  -0.0001141791713318   0.0099987157954445
  -0.0022560500   -0.0034469004    0.0004190908
  -0.0077170222    0.0003249222   -0.0433429913
  -0.0024192552   -0.0036120525   -0.0040661575
   0.0029981206    0.0029298867    0.0038529208
   0.0020394267    0.0020972366    0.0007202646
  -0.0046570832    0.0009075276    0.0019541285
  -0.0023647745   -0.0016877902    0.0001010756
   0.0018723009   -0.0002794368    0.0013817018
   0.0018561708   -0.0049793193    0.0030836817
   0.0006894641    0.0010261518    0.0032845750
   0.0004678181    0.0007058765    0.0003559632
  -0.0019096072   -0.0009072128   -0.0055641600
   0.0007363706    0.0002872814    0.0007154349
   0.0007422692   -0.0026135635    0.0021227879
  -0.0000465079    0.0011598797    0.0009791566
  -0.0003787123   -0.0018041615    0.0000419990
   0.0013902275    0.0004779816    0.0004857506
  -0.0034076374    0.0018103024    0.0013528341
  -0.0018983476   -0.0016027007    0.0004834214
  -0.0005223744    0.0003102592   -0.0010701181
  -0.0017242581   -0.0014579599   -0.0011483681
   0.0032078066   -0.0002696635    0.0013226697
   0.0012295069    0.0011974301   -0.0004323796
  -0.0020183562    0.0008430107    0.0011793148
  -0.0036291241   -0.0039596780    0.0047392368
   0.0073423489    0.0044651272   -0.0022137161
   0.0003738693   -0.0050114311   -0.0068556776
  -0.0025136933   -0.0024014199    0.0038374707
  -0.0002947218    0.0029073357   -0.0014245740
  -0.0007437181   -0.0019473800    0.0006846104
   0.0036289062   -0.0004008933   -0.0016606550
   0.0028402517    0.0018681543   -0.0042150846
   0.0072137094   -0.0010033252    0.0227337020
  -0.0003618878    0.0022321049    0.0001613170
  -0.0012079991    0.0030639029    0.0028306079
   0.0004660189   -0.0006354311    0.0023871899
   0.0005531429   -0.0012819305    0.0015541412
  -0.0008124067    0.0001204370    0.0009510395
  -0.0054407918   -0.0018644338   -0.0012870190
   0.0011771149    0.0075468653    0.0082067075
   0.0012295678    0.0005698857    0.0034100838
  -0.0035352528   -0.0002725105    0.0057398435
   0.0005387837    0.0007701451   -0.0015124803
   0.0037956154    0.0036479500   -0.0011526191
  -0.0024242858   -0.0006734759    0.0021444567
   0.0041055516    0.0031657332   -0.0028323307
   0.0042521134   -0.0033510789   -0.0029182334
   0.0002762007    0.0008983973   -0.0000836487
   0.0000122334   -0.0000881973   -0.0022876496
   0.0004473781    0.0012279019   -0.0012734323
  -0.0012890861    0.0001995946    0.0029106926
  -0.0019093349   -0.0012093348   -0.0007865754

2    
  0.0001124524733482   0.0001141791713318  -0.0099987157954445
  -0.0024691384   -0.0041419802   -0.0030400123
   0.0063416707    0.0004396827    0.0466540208
  -0.0036914805    0.0008449845   -0.0023750562
   0.0004323621   -0.0037890158   -0.0007460177
  -0.0021256868    0.0007561983    0.0003357315
  -0.0001283773    0.0031114074   -0.0009658220
  -0.0020989097   -0.0017802909    0.0005625236
   0.0021366921   -0.0004529517    0.0005573806
   0.0012105635   -0.0016876900    0.0004699740
   0.0020704160    0.0005609957    0.0023598418
   0.0004829933    0.0012791160   -0.0000548267
  -0.0022175063   -0.0015749623   -0.0066595885
   0.0003225779   -0.0004066404    0.0012638120
   0.0006336713   -0.0027232301    0.0012876668
  -0.0004386810    0.0011504085    0.0008320882
  -0.0001188943   -0.0018683268   -0.0008131704
  -0.0013287308    0.0005841510   -0.0028513287
  -0.0033735500    0.0014436265   -0.0004934582
  -0.0018276462   -0.0014497970    0.0004592588
  -0.0009121121    0.0007838748    0.0000353279
  -0.0014735878   -0.0015397546    0.0001562878
   0.0030978636   -0.0000412011    0.0014110901
   0.0012337491    0.0011879618   -0.0000149006
  -0.0022133396    0.0007675051    0.0016379327
  -0.0041863535   -0.0036237395    0.0021777208
   0.0013036769    0.0028683162    0.0101662091
   0.0032349960    0.0008574869    0.0053264694
  -0.0027139771   -0.0016397854    0.0017885227
  -0.0003393361    0.0027850024    0.0003342413
   0.0004504274   -0.0026558200    0.0017949098
   0.0040676758   -0.0009257119    0.0007565178
   0.0022524127    0.0024500829   -0.0028549642
  -0.0052784403    0.0083194228   -0.0237581173
   0.0014488283    0.0024689897   -0.0028010265
  -0.0032148330    0.0002328765    0.0017504256