104  
312  

1    
  0.0099999743392304  -0.0000000000323826  -0.0000226542431665
  -0.0528502099    0.0027117344    0.0063424914
   0.0002291546   -0.0010931258   -0.0007404713
   0.0006584731    0.0010182945   -0.0005584145
   0.0003999298   -0.0011693386   -0.0000087085
   0.0002159057    0.0004750451    0.0000283517
  -0.0001446210   -0.0004183563    0.0001458352
   0.0002909669    0.0004424525    0.0005126701
   0.0013531760    0.0003590809   -0.0004767297
   0.0036095955   -0.0040769713    0.0004672306
  -0.0009877750    0.0000486006   -0.0001069255
  -0.0000791386   -0.0009561878   -0.0007277962
  -0.0010275745    0.0002085221    0.0000046250
   0.0008629211    0.0015601705    0.0017419003
   0.0023348259   -0.0017597865    0.0014961432
   0.0006709002    0.0017211007    0.0013198943
   0.0008501350   -0.0009743516    0.0014794716
   0.0001069479   -0.0000383733    0.0006567803
  -0.0011755887    0.0010392916   -0.0008046217
   0.0004784599    0.0000549591    0.0005688075
   0.0005745124    0.0003933517    0.0006418196
  -0.0017248510   -0.0004488056   -0.0011928467
  -0.0009572258   -0.0006219783   -0.0002302625
  -0.0003989851    0.0007182287    0.0005460295
  -0.0003179744   -0.0007107810    0.0004547759
   0.0010901910    0.0006866402   -0.0020597876
  -0.0000392909   -0.0000568597    0.0014034023
   0.0003345673    0.0008515888    0.0072947431
   0.0019349976   -0.0001457396   -0.0011462510
  -0.0006115755   -0.0021790067    0.0005369187
  -0.0005615456    0.0020513622   -0.0002358310
   0.0003244247   -0.0033418754   -0.0012032016
  -0.0009395138    0.0019529591    0.0003387432
   0.0008684336   -0.0018190085   -0.0019915306
   0.0008593454    0.0021365647   -0.0006947322
   0.0010669763   -0.0022955176   -0.0012443037
   0.0021857861    0.0030466327   -0.0023540885
   0.0013432386    0.0010554336   -0.0013886828
  -0.0016929090   -0.0013741593    0.0014960221
  -0.0017098531    0.0015637447    0.0011860557
  -0.0028299923   -0.0016537581   -0.0009067849
   0.0005834223    0.0004075518   -0.0006047700
   0.0013801979   -0.0000119753   -0.0006100082
   0.0254590171   -0.0049580500    0.0013584310
   0.0004285848   -0.0001563668   -0.0005054145
   0.0198681661    0.0035599235   -0.0100964368
  -0.0007627112    0.0004532235    0.0002175738
  -0.0013871816   -0.0009991346    0.0001056034
  -0.0010508000    0.0003482975   -0.0002385916
   0.0017184681    0.0001956647   -0.0006772412
   0.0002103723    0.0006562808    0.0001163343
  -0.0008165067   -0.0005634313   -0.0004463565
  -0.0001870204    0.0004797432   -0.0006715038
   0.0003560405    0.0010274193   -0.0006111210
   0.0002552822   -0.0009871362   -0.0007417572
   0.0006618912    0.0009836642   -0.0005584780
   0.0004250472   -0.0009697126   -0.0005489740
   0.0001323529    0.0003691700    0.0000131348
   0.0010139699    0.0019982070    0.0008836931
   0.0001813719    0.0003266883    0.0001241999
   0.0001661941   -0.0004794425    0.0000381755
  -0.0011985733   -0.0000080196   -0.0000015048
  -0.0010695862    0.0001250684   -0.0000997388
  -0.0011279364   -0.0000612051   -0.0000785857
  -0.0009819266    0.0001097210    0.0003230510
   0.0008942698    0.0018934454    0.0017133501
   0.0008836322   -0.0017829942    0.0016101198
   0.0008669308    0.0017601625    0.0014783442
   0.0007945190   -0.0022663293    0.0014400535
  -0.0001286533    0.0002560733    0.0002823693
  -0.0000050125   -0.0000727068    0.0005723228
   0.0001728563   -0.0000238581    0.0005867541
   0.0002698659   -0.0000351162    0.0006668934
  -0.0006748217    0.0007800919    0.0004525987
  -0.0006026070   -0.0006688639    0.0004446481
  -0.0000817369    0.0002816240    0.0005303724
  -0.0004947570   -0.0006440973    0.0004597446
   0.0011507327    0.0015116984   -0.0019977426
   0.0008475827   -0.0010394841   -0.0015294457
   0.0016087667    0.0009760964   -0.0016393351
   0.0018169025   -0.0013161671   -0.0011519434
  -0.0009111470   -0.0025583356    0.0006247382
  -0.0004332095    0.0022966858    0.0003922644
  -0.0006705694   -0.0025124628    0.0003024732
  -0.0006670285    0.0026298407    0.0000965465
   0.0012805769   -0.0019171493   -0.0009963070
   0.0011393588    0.0017688678   -0.0008291356
   0.0008133738   -0.0017980283   -0.0009999978
   0.0009993445    0.0020790672   -0.0009700289
  -0.0016910943    0.0017528795    0.0011653894
  -0.0017115604   -0.0022110611    0.0015134840
  -0.0016043925    0.0017449655    0.0012125233
  -0.0015913282   -0.0017068731    0.0012874401
   0.0005839244   -0.0004693371   -0.0006945974
   0.0008686606    0.0000475924   -0.0006697751
   0.0006113774    0.0000471853   -0.0005668098
   0.0004700044    0.0000493858   -0.0005579148
  -0.0007178610   -0.0003779768    0.0001268277
  -0.0008088587    0.0001639545    0.0001862508
  -0.0013829528    0.0002774849    0.0001104400
  -0.0009498109    0.0003350821    0.0000728987
   0.0004483955   -0.0007307430   -0.0004108989
   0.0000626805    0.0005638919   -0.0004150308
  -0.0001253659   -0.0005780209   -0.0004978890
  -0.0001843646    0.0006856033   -0.0006824507

1    
 -0.0099999743392304   0.0000000000323826   0.0000226542431665
   0.0534689148   -0.0002423708   -0.0084407819
   0.0005505696   -0.0009254295   -0.0004750099
   0.0000887325    0.0009816562   -0.0005978147
   0.0003693240   -0.0008298718   -0.0011383652
   0.0000256646    0.0003451293    0.0000808903
   0.0003915943   -0.0003875607   -0.0000387204
   0.0000772940    0.0003027501   -0.0003025580
  -0.0009694997   -0.0011017629    0.0006964137
  -0.0058571514    0.0039471315   -0.0005896560
  -0.0011854247    0.0001296959   -0.0000257044
  -0.0019833096    0.0006765627    0.0007098104
  -0.0010519422    0.0000687218   -0.0000376823
   0.0008692869    0.0019905444    0.0014057154
  -0.0005554837   -0.0017928759    0.0016078966
   0.0011252954    0.0017955679    0.0017375889
   0.0009728595   -0.0025451597    0.0015300692
   0.0001858011    0.0000511030    0.0004675933
   0.0014472979   -0.0010199745    0.0019062192
  -0.0002214023   -0.0000795742    0.0005429808
  -0.0003239004   -0.0003361855    0.0004552758
   0.0006607325    0.0018152924    0.0020663690
  -0.0001039075   -0.0007747251    0.0011314518
  -0.0006729947    0.0005900007    0.0002981271
  -0.0007441847   -0.0006317113    0.0004045769
   0.0007567383    0.0014679074   -0.0013031040
   0.0018815339   -0.0021182186   -0.0044415560
   0.0026056200    0.0010747497   -0.0103521959
   0.0011379111   -0.0017388583   -0.0014488723
  -0.0003022176   -0.0025642897    0.0003385353
  -0.0003988929    0.0025933394    0.0009673371
  -0.0016094393   -0.0017416382    0.0017184490
  -0.0004767724    0.0030542125   -0.0000711051
   0.0016930208   -0.0020025674    0.0000292832
   0.0017256981    0.0017804038   -0.0011237031
   0.0008664079   -0.0018748792   -0.0010321936
  -0.0001182292    0.0011895877    0.0003102906
  -0.0047034944    0.0025001044    0.0037780746
  -0.0017358899   -0.0021715976    0.0009598091
  -0.0012127970    0.0018172359    0.0012773381
  -0.0002691920   -0.0017563404    0.0035419445
   0.0011989628   -0.0005209120   -0.0008272586
   0.0004198073    0.0001331891   -0.0007121753
  -0.0233288202    0.0047558617   -0.0024134788
   0.0006001894    0.0000971790   -0.0006589187
  -0.0222130139   -0.0044165268    0.0109745178
  -0.0008992198    0.0001970321    0.0000782166
  -0.0004609396    0.0003125478    0.0001817836
  -0.0007994862    0.0003400952    0.0004395343
  -0.0016119069   -0.0013711089   -0.0001339284
  -0.0002005128    0.0005099454   -0.0010543751
   0.0008075361   -0.0005627957   -0.0005177662
   0.0001121751    0.0006641557   -0.0004051144
   0.0004143797    0.0009919852   -0.0005807158
   0.0005253032   -0.0010310281   -0.0004739176
   0.0000857003    0.0010164886   -0.0005971988
   0.0003436786   -0.0010297105   -0.0005984579
   0.0001096703    0.0004523581    0.0000945787
  -0.0007703730   -0.0028162787   -0.0007743733
   0.0001865617    0.0004183027    0.0000855542
   0.0002142911   -0.0002576095    0.0001803069
  -0.0009673905   -0.0001843737   -0.0001251987
  -0.0011033512    0.0000541389   -0.0000342927
  -0.0009380427   -0.0002243441    0.0000570451
  -0.0010976804    0.0001675983   -0.0003556254
   0.0008362283    0.0016553397    0.0014345718
   0.0008828384   -0.0017665558    0.0014911383
   0.0009287999    0.0017569346    0.0015799758
   0.0010306255   -0.0012624031    0.0015706531
   0.0004192640   -0.0002447186    0.0008371619
   0.0002795401    0.0000898691    0.0005302941
   0.0000858949   -0.0000005183    0.0005252980
  -0.0000198583    0.0000926990    0.0004319325
  -0.0003956202    0.0005862348    0.0004258780
  -0.0004495993   -0.0007313581    0.0004549243
  -0.0009878619    0.0010268605    0.0003140816
  -0.0005662568   -0.0006979279    0.0003998753
   0.0006946214    0.0006469075   -0.0013681562
   0.0009608785   -0.0011252687   -0.0015020821
   0.0013147011    0.0009497925   -0.0014283500
   0.0012568533   -0.0005774152   -0.0014425419
  -0.0000030996   -0.0021875197    0.0002527694
  -0.0005231750    0.0023476065    0.0003377968
  -0.0006186386   -0.0025696914    0.0002150823
  -0.0007481434    0.0023839065    0.0001679631
   0.0012784544   -0.0019059460   -0.0009780430
   0.0014459519    0.0021477711   -0.0009877461
   0.0011189620   -0.0023683087   -0.0012743785
   0.0010665408    0.0021558289   -0.0010657849
  -0.0016531210    0.0017895794    0.0011311253
  -0.0017140615   -0.0013337406    0.0009425432
  -0.0013192156    0.0016364338    0.0012515778
  -0.0015095390   -0.0017031763    0.0013408331
   0.0011987390    0.0003587097   -0.0007364267
   0.0009391485    0.0000727994   -0.0006484842
   0.0005226187   -0.0000065774   -0.0007787626
   0.0005595651   -0.0001072211   -0.0006078103
  -0.0009581650   -0.0002750026    0.0002296199
  -0.0008521620    0.0004842232    0.0001092527
  -0.0004647267   -0.0009610939    0.0001777630
  -0.0009007269    0.0003527953    0.0001271267
  -0.0003331142   -0.0004248312   -0.0004153950
  -0.0000532751    0.0005942771   -0.0005329066
   0.0001120429   -0.0005633462   -0.0004817939
   0.0001064014    0.0004517571   -0.0004023350

1    
  0.0000000000280432   0.0100000000000000  -0.0000000004627133
   0.0017750026   -0.0102594166    0.0007424540
   0.0004729807   -0.0012028974   -0.0006250283
   0.0003576932    0.0010323455   -0.0006263616
   0.0005576150   -0.0009985852   -0.0006689204
   0.0000837075    0.0004881061    0.0001145953
  -0.0012703815    0.0003442323    0.0002163149
   0.0002446469    0.0002726954    0.0002100320
   0.0002885791   -0.0009987779    0.0004852378
  -0.0052660865   -0.0006777091    0.0003533788
  -0.0011317055   -0.0002846588    0.0000298737
  -0.0013517972    0.0000082753   -0.0000537104
  -0.0009880924    0.0001355842    0.0000643309
   0.0006640520    0.0016136827    0.0013959540
   0.0013132331   -0.0014759531    0.0014676006
   0.0008507682    0.0015401116    0.0014483786
   0.0019754029   -0.0016728506    0.0027319844
   0.0005594589    0.0006115507   -0.0008198735
   0.0005101817    0.0003697824   -0.0002531759
   0.0001540979   -0.0001607210    0.0006212134
   0.0001234072   -0.0002316744    0.0005991615
  -0.0014187780   -0.0001689750    0.0010988995
  -0.0002484294   -0.0017145143   -0.0015457668
  -0.0005328415    0.0006918542    0.0004702269
  -0.0004145537   -0.0006949052    0.0004753462
   0.0005481076    0.0005270139   -0.0013002404
   0.0036959031   -0.0014379866   -0.0013979589
   0.0018515241   -0.0001720980   -0.0038894274
   0.0018329763   -0.0011386105   -0.0014637600
  -0.0003733718   -0.0023706350    0.0003665491
  -0.0008824837    0.0023848645    0.0000306685
  -0.0013836178   -0.0014354149   -0.0001430386
  -0.0010841891    0.0026876499    0.0003510576
   0.0011353429   -0.0009444388   -0.0004563019
   0.0012446474    0.0024873601   -0.0009047819
   0.0005019020   -0.0020136668   -0.0008449858
   0.0013655019    0.0023413357   -0.0003946224
  -0.0029513073    0.0037154892    0.0048833577
  -0.0013496032   -0.0015489113    0.0010941415
  -0.0016395082    0.0017654766    0.0012000610
  -0.0013811795   -0.0016322433    0.0019742274
   0.0013829127    0.0001381497   -0.0011517354
   0.0001711734    0.0000548970   -0.0012752998
  -0.0039827610    0.0011985850   -0.0010494512
   0.0004631916    0.0000392415   -0.0004200366
   0.0037486691    0.0036625474   -0.0026832913
  -0.0007766076    0.0007103510    0.0009025345
  -0.0013728237   -0.0000434235   -0.0000850087
  -0.0010100118    0.0005962295    0.0001418805
   0.0001897189    0.0026158162   -0.0004181339
   0.0000495219    0.0007601116   -0.0003234231
   0.0000032443   -0.0005011615   -0.0005710901
  -0.0000611345    0.0006616679   -0.0005296691
   0.0003996594    0.0021370970   -0.0006246069
   0.0003683207   -0.0008884157   -0.0006073651
   0.0003944364    0.0010330510   -0.0005588359
   0.0003555147   -0.0009794030   -0.0005843611
   0.0001265089    0.0005205167    0.0000257683
   0.0024052497    0.0011580526   -0.0000852464
   0.0001950358    0.0005245378    0.0001216813
   0.0001884720   -0.0001543673    0.0000517728
  -0.0007611708    0.0002759851   -0.0001094198
  -0.0010750272    0.0002723699   -0.0001055398
  -0.0006565971    0.0000695088    0.0000624805
  -0.0010604528    0.0001503554   -0.0002248314
   0.0008893215    0.0019755628    0.0015996381
   0.0007863920   -0.0016985492    0.0016138048
   0.0008952169    0.0019624769    0.0015173411
   0.0006504540   -0.0014642436    0.0012243539
  -0.0000007339    0.0002900628    0.0012515261
  -0.0000026486    0.0001664076    0.0008543029
   0.0000861604    0.0001253160    0.0005532473
   0.0001478420    0.0001804898    0.0005435814
  -0.0004926161    0.0009071070    0.0004357330
  -0.0005331615   -0.0003196446    0.0007947471
  -0.0005648032    0.0007138611    0.0004477762
  -0.0006144369   -0.0006388811    0.0004260462
   0.0010297882    0.0013482705   -0.0018021412
   0.0005142496   -0.0004882482   -0.0017662182
   0.0015657098    0.0015946955   -0.0013193163
   0.0014815061   -0.0005211803   -0.0012777807
  -0.0004505573   -0.0025008867    0.0004527049
  -0.0002284036    0.0018954619    0.0007038248
  -0.0005208724   -0.0029652049    0.0002181596
  -0.0006805807    0.0022660990    0.0001313999
   0.0014115251   -0.0023612571   -0.0010839308
   0.0012287933    0.0016917992   -0.0008546121
   0.0011672856   -0.0023723400   -0.0012574606
   0.0008084235    0.0016384928   -0.0012578162
  -0.0014160183    0.0009153580    0.0014174795
  -0.0018401878   -0.0019305687    0.0012888558
  -0.0014060590    0.0015730055    0.0012364391
  -0.0016590734   -0.0018441234    0.0012436524
   0.0007465285   -0.0001909554   -0.0005652202
   0.0009585728   -0.0000562599   -0.0004847149
   0.0004763854   -0.0004370983   -0.0008398268
   0.0005310792   -0.0001328241   -0.0006228254
  -0.0006001954   -0.0012191076    0.0000005889
  -0.0008317791    0.0000659661   -0.0000167567
  -0.0008079753   -0.0005375663    0.0001922194
  -0.0009111848    0.0001573191    0.0001145260
   0.0000826190   -0.0017730814   -0.0005440277
   0.0000149268    0.0004432703   -0.0004806683
  -0.0000011574   -0.0006751064   -0.0004982619
  -0.0000341842    0.0004220395   -0.0005262337

1    
 -0.0000000000280432  -0.0100000000000000   0.0000000004627133
  -0.0009627896    0.0119141630   -0.0018485434
   0.0003094959   -0.0008171131   -0.0005886585
   0.0003909738    0.0009691872   -0.0005290319
   0.0002142473   -0.0009979283   -0.0004794823
   0.0001590731    0.0003372710   -0.0000043862
   0.0015122397   -0.0011480983   -0.0001089148
   0.0001249109    0.0004737450   -0.0000007870
   0.0000877582    0.0002519083   -0.0002659363
   0.0030918036    0.0004610852   -0.0004831228
  -0.0010401461    0.0004608966   -0.0001609396
  -0.0007122866   -0.0002868557    0.0000374036
  -0.0010897233    0.0001414601   -0.0000956105
   0.0010661920    0.0019345348    0.0017512515
   0.0004610991   -0.0020736073    0.0016331162
   0.0009451902    0.0019778088    0.0016093980
  -0.0001437729   -0.0018531948    0.0002837234
  -0.0002633424   -0.0005996354    0.0019373530
  -0.0002398977   -0.0003403852    0.0013543375
   0.0001065645    0.0001369245    0.0004905966
   0.0001277380    0.0002870656    0.0004996692
   0.0003516049    0.0015230355   -0.0002271635
  -0.0008020443    0.0003117692    0.0024394838
  -0.0005389593    0.0006161924    0.0003744745
  -0.0006448328   -0.0006457023    0.0003854513
   0.0012983873    0.0016240246   -0.0020632654
  -0.0018464894   -0.0007334465   -0.0016290952
   0.0010785228    0.0021007878    0.0007839869
   0.0012405151   -0.0007566471   -0.0011314926
  -0.0005388073   -0.0023711309    0.0005095866
  -0.0000773599    0.0022540372    0.0007023917
   0.0000941670   -0.0036390923    0.0006597232
  -0.0003315612    0.0023299559   -0.0000827375
   0.0014257613   -0.0028699793   -0.0015155889
   0.0013428108    0.0014350506   -0.0009123294
   0.0014283892   -0.0021529829   -0.0014284285
   0.0006962352    0.0018906576   -0.0016448652
  -0.0004143973   -0.0001539228   -0.0025924038
  -0.0020746878   -0.0019950337    0.0013599566
  -0.0012828379    0.0016183965    0.0012644557
  -0.0017159766   -0.0017766999    0.0006637372
   0.0004038492   -0.0002463279   -0.0002791335
   0.0016275676    0.0000680087   -0.0000505661
   0.0050517868   -0.0011034843   -0.0003018519
   0.0005672681   -0.0000953264   -0.0007432137
  -0.0053713237   -0.0042649379    0.0030093865
  -0.0008842489   -0.0000556498   -0.0005998574
  -0.0004759639   -0.0006363052    0.0003724167
  -0.0008397150    0.0000925183    0.0000591232
  -0.0000691129   -0.0035375206   -0.0004353240
  -0.0000396722    0.0004084970   -0.0006090198
  -0.0000132089   -0.0006264003   -0.0003940335
  -0.0000123516    0.0004851757   -0.0005464148
   0.0003722730   -0.0001232093   -0.0005650261
   0.0004133730   -0.0011285455   -0.0006081521
   0.0003537882    0.0009685342   -0.0005962261
   0.0004138695   -0.0010199246   -0.0005620997
   0.0001174842    0.0003019692    0.0000818923
  -0.0021910608   -0.0019654872    0.0001991491
   0.0001742142    0.0002222893    0.0000898797
   0.0001953792   -0.0005799632    0.0001672463
  -0.0014103787   -0.0004692962   -0.0000168993
  -0.0010970583   -0.0000916047   -0.0000289225
  -0.0014041301   -0.0003538752   -0.0000834434
  -0.0010184083    0.0001292638    0.0001921855
   0.0008412739    0.0015769333    0.0015485304
   0.0009797467   -0.0018500111    0.0014885458
   0.0009019670    0.0015552449    0.0015415584
   0.0011825654   -0.0020624658    0.0017924297
   0.0002996872   -0.0002818177   -0.0001436862
   0.0002770944   -0.0001483384    0.0002528478
   0.0001728541   -0.0001479868    0.0005591018
   0.0001037017   -0.0001210208    0.0005543769
  -0.0005773693    0.0004607263    0.0004456867
  -0.0005149363   -0.0010799762    0.0000988989
  -0.0005058788    0.0005977510    0.0003972710
  -0.0004463806   -0.0007029141    0.0004344330
   0.0008181255    0.0008145547   -0.0015632887
   0.0012890933   -0.0016742660   -0.0012681858
   0.0013604620    0.0003335581   -0.0017434097
   0.0015933936   -0.0013657631   -0.0013163320
  -0.0004615918   -0.0022465145    0.0004246474
  -0.0007235136    0.0027493971    0.0000281347
  -0.0007673293   -0.0021173682    0.0002978891
  -0.0007349383    0.0027462302    0.0001350350
   0.0011513805   -0.0014617709   -0.0008889682
   0.0013575052    0.0022246398   -0.0009615424
   0.0007670279   -0.0017968483   -0.0010170724
   0.0012568847    0.0025953397   -0.0007813101
  -0.0019234337    0.0026279753    0.0008845230
  -0.0015835825   -0.0016165642    0.0011670912
  -0.0015171860    0.0018081116    0.0012277837
  -0.0014426621   -0.0015649743    0.0013834654
   0.0010392186    0.0000784097   -0.0008661085
   0.0008514525    0.0001773708   -0.0008301370
   0.0006568247    0.0004792415   -0.0005072967
   0.0004996168    0.0000744645   -0.0005413656
  -0.0010684010    0.0005655201    0.0003519513
  -0.0008279572    0.0005806149    0.0003166995
  -0.0010400117   -0.0001486101    0.0000952712
  -0.0009375174    0.0005315712    0.0000859291
   0.0000326015    0.0006287908   -0.0002767835
  -0.0000041065    0.0007150682   -0.0004666241
  -0.0000108895   -0.0004655752   -0.0004804999
  -0.0000427790    0.0007143722   -0.0005578985

1    
 -0.0032918694191377  -0.0000000000660383   0.0094426477074678
   0.0251834686    0.0018917723   -0.0329634192
   0.0003169330   -0.0009562814   -0.0003744429
   0.0003000638    0.0010111569   -0.0006897696
   0.0009147220   -0.0008519997   -0.0004760865
  -0.0001306186    0.0006573699    0.0006739193
   0.0004222064   -0.0004277341    0.0000172006
   0.0003070689    0.0004177808    0.0006625981
   0.0000522873   -0.0000769572   -0.0000665687
  -0.0018521101    0.0014826918   -0.0023908284
  -0.0013188842   -0.0001821538    0.0004513211
  -0.0011704442   -0.0004134200   -0.0001388794
  -0.0010306664    0.0001529982    0.0000233641
   0.0009003573    0.0014928692    0.0017482717
  -0.0002250538   -0.0017638026    0.0021133579
   0.0008916217    0.0017850157    0.0016699268
   0.0010039114   -0.0013669341    0.0012187456
   0.0001846102   -0.0000102127    0.0003466010
   0.0001413378   -0.0010086178    0.0022932464
   0.0004990331    0.0001491809    0.0004636082
   0.0000866571    0.0000259600    0.0006116558
  -0.0013809538    0.0017865091    0.0032964607
  -0.0012923297   -0.0024366339    0.0018310981
  -0.0005901537    0.0006551385    0.0004581895
  -0.0001623751   -0.0008102934    0.0003605443
   0.0005482070    0.0014436164   -0.0017440206
   0.0088423569   -0.0015955313   -0.0002687655
   0.0061493619   -0.0002787301   -0.0027134154
   0.0014673360   -0.0016588847   -0.0007872984
  -0.0003084870   -0.0025479086    0.0003957921
  -0.0021315171    0.0015038719    0.0007627700
  -0.0020467764   -0.0025998559   -0.0008040512
  -0.0004128581    0.0030062302   -0.0000623106
  -0.0002347412   -0.0011941484   -0.0007060409
   0.0016435647    0.0017962152   -0.0011375232
   0.0009226917   -0.0019442935   -0.0011560974
   0.0002280116    0.0024367369   -0.0012358576
  -0.0063274947    0.0055464123    0.0164718458
  -0.0014933029   -0.0021625902    0.0010422285
  -0.0013453724    0.0018255867    0.0011945770
  -0.0017775098   -0.0015943054    0.0022415059
   0.0010771413   -0.0004820798   -0.0005519144
  -0.0006870499    0.0000726282   -0.0026467338
  -0.0046273165    0.0008504026    0.0011082590
   0.0005746258    0.0000778753   -0.0009041617
  -0.0193710136   -0.0043754130    0.0131986151
  -0.0006985771    0.0008595772   -0.0002597021
  -0.0008877967   -0.0004276360    0.0002844835
  -0.0012114317    0.0003655848   -0.0001525235
  -0.0006751818   -0.0009822759    0.0009019794
   0.0003043028    0.0005882033   -0.0012795660
   0.0001272009   -0.0005302131   -0.0001595902
  -0.0001327247    0.0005607619   -0.0007029466
   0.0003813395    0.0009696648   -0.0005993807
   0.0003108836   -0.0010124937   -0.0003857253
   0.0002988188    0.0009586728   -0.0006911026
   0.0003958195   -0.0009942695   -0.0005377468
   0.0001213953    0.0003464142    0.0002361701
   0.0003185054   -0.0016047368   -0.0018344673
   0.0002145042    0.0003844498    0.0001445824
   0.0001775706   -0.0003859301    0.0000511456
  -0.0009739249   -0.0001711689   -0.0001547705
  -0.0010631715    0.0001598809    0.0001059262
  -0.0010525508   -0.0001347411   -0.0000661807
  -0.0009917212    0.0001073148    0.0002889048
   0.0009186604    0.0020577979    0.0017212241
   0.0009286082   -0.0017663986    0.0015066392
   0.0008983848    0.0017563712    0.0015739712
   0.0009604781   -0.0019481047    0.0013581370
  -0.0005074986    0.0012163704    0.0006790616
   0.0002178996    0.0001079299    0.0004821138
   0.0001618536    0.0000302666    0.0005324207
   0.0000669002    0.0000345784    0.0006105324
  -0.0004800448    0.0005685797    0.0004100565
  -0.0005247756   -0.0006512152    0.0003067457
  -0.0006057425    0.0006528194    0.0005110574
  -0.0004979471   -0.0007260574    0.0004160319
   0.0005756813    0.0007229145   -0.0015871606
   0.0007921611   -0.0010996287   -0.0013700280
   0.0015412343    0.0009407745   -0.0016907825
   0.0015011288   -0.0005874872   -0.0009455187
  -0.0001101129   -0.0022291940    0.0002094187
  -0.0004471381    0.0023642818    0.0003127537
  -0.0006707170   -0.0025196790    0.0003089771
  -0.0007250904    0.0024181164    0.0001269572
   0.0013124269   -0.0019240290   -0.0010075587
   0.0014153477    0.0021283973   -0.0009814210
   0.0011553273   -0.0023435031   -0.0012303543
   0.0010207922    0.0021175690   -0.0009177401
  -0.0016188167    0.0017580195    0.0011937618
  -0.0015777584   -0.0013902330    0.0009977497
  -0.0014119907    0.0016331840    0.0012048960
  -0.0015470008   -0.0017009998    0.0013151323
   0.0011398697    0.0004248808   -0.0006223950
   0.0008944719    0.0000616701   -0.0007328725
   0.0006031393    0.0000457093   -0.0006025349
   0.0005516867   -0.0000728764   -0.0007547989
  -0.0009874297   -0.0002251504    0.0003060802
  -0.0006855044   -0.0002443514   -0.0002277542
  -0.0008871677   -0.0002432435    0.0002090247
  -0.0009340618    0.0003452404    0.0000758968
  -0.0000642389   -0.0006072721   -0.0000131658
   0.0000355424    0.0005704269   -0.0005806026
   0.0000237298   -0.0005763302   -0.0004153635
  -0.0001360945    0.0005135586   -0.0007155959

1    
  0.0032918694191377   0.0000000000660383  -0.0094426477074678
  -0.0235700632    0.0005262046    0.0322088768
   0.0004646841   -0.0010636767   -0.0008417274
   0.0004480129    0.0009895464   -0.0004642792
  -0.0001440249   -0.0011470940   -0.0006712089
   0.0003735845    0.0001646696   -0.0005651576
  -0.0001737309   -0.0003809403    0.0000898228
   0.0000622203    0.0003279187   -0.0004480367
   0.0003257245   -0.0006647569    0.0002902539
  -0.0002893281   -0.0016820651    0.0022568873
  -0.0008527937    0.0003601547   -0.0005840323
  -0.0008954372    0.0001318150    0.0001243948
  -0.0010474597    0.0001251701   -0.0000554751
   0.0008325212    0.0020569181    0.0014002733
   0.0020078130   -0.0017869646    0.0009905833
   0.0009056074    0.0017320694    0.0013886554
   0.0008193815   -0.0021574455    0.0017840507
   0.0001084635    0.0000177303    0.0007787513
   0.0001237304    0.0010332324   -0.0011885350
  -0.0002396839   -0.0001731678    0.0006474732
   0.0001653287    0.0000316404    0.0004838889
   0.0002884699   -0.0004157379   -0.0023942279
   0.0002409070    0.0010651767   -0.0009531845
  -0.0004803276    0.0006530850    0.0003851301
  -0.0008994500   -0.0005308077    0.0004986727
   0.0012986726    0.0007093297   -0.0016238823
  -0.0070280101   -0.0005610923   -0.0027748421
  -0.0032009084    0.0021945231   -0.0003912331
   0.0016042333   -0.0002265842   -0.0018072512
  -0.0006029423   -0.0021959922    0.0004811033
   0.0011847550    0.0031435750   -0.0000327175
   0.0007427069   -0.0024836423    0.0013082431
  -0.0010032807    0.0020028376    0.0003328192
   0.0027999609   -0.0026313015   -0.0012708618
   0.0009442097    0.0021231517   -0.0006784760
   0.0010115910   -0.0022263728   -0.0011211861
   0.0018321257    0.0018025348   -0.0007992063
   0.0029080593   -0.0022175448   -0.0148999715
  -0.0019311148   -0.0013829930    0.0014122401
  -0.0015778976    0.0015553266    0.0012692137
  -0.0013248334   -0.0018138136    0.0003925138
   0.0007060870    0.0003722109   -0.0008747868
   0.0024886744    0.0000482723    0.0013263580
   0.0056719032   -0.0007952670   -0.0024475258
   0.0004547572   -0.0001374459   -0.0002610741
   0.0170225161    0.0035448578   -0.0125221980
  -0.0009615188   -0.0002102754    0.0005560682
  -0.0009567948   -0.0002540248    0.0000054595
  -0.0006381945    0.0003232505    0.0003516750
   0.0007857000   -0.0001983873   -0.0017162663
  -0.0002943398    0.0005786487    0.0003464498
  -0.0001350056   -0.0005983161   -0.0008068666
   0.0000580728    0.0005829525   -0.0003737871
   0.0003900790    0.0010501429   -0.0005922310
   0.0004717831   -0.0010055352   -0.0008309099
   0.0004482517    0.0010415060   -0.0004635185
   0.0003736387   -0.0010045418   -0.0006091443
   0.0001216026    0.0004763223   -0.0001285029
  -0.0000622440    0.0008028236    0.0019417102
   0.0001542773    0.0003606317    0.0000655610
   0.0002048903   -0.0003507094    0.0001680520
  -0.0011913452   -0.0000210382    0.0000284100
  -0.0011089495    0.0000193397   -0.0002399535
  -0.0010113917   -0.0001512581    0.0000458856
  -0.0010877717    0.0001702482   -0.0003205350
   0.0008124899    0.0014909833    0.0014266025
   0.0008389847   -0.0017830207    0.0015947116
   0.0008988389    0.0017610172    0.0014848501
   0.0008669978   -0.0015781061    0.0016506716
   0.0008020664   -0.0012082047    0.0004465533
   0.0000571682   -0.0000906888    0.0006217662
   0.0000974203   -0.0000544189    0.0005798999
   0.0001844258    0.0000238638    0.0004872902
  -0.0005894004    0.0007975753    0.0004687926
  -0.0005263029   -0.0007488302    0.0005936533
  -0.0004649041    0.0006551727    0.0003334173
  -0.0005620070   -0.0006154691    0.0004441430
   0.0012715358    0.0014369472   -0.0017789644
   0.0010163513   -0.0010659803   -0.0016607591
   0.0013842252    0.0009857690   -0.0013772757
   0.0015719204   -0.0013050813   -0.0016489133
  -0.0008036242   -0.0025173213    0.0006681200
  -0.0005077518    0.0022806939    0.0004167001
  -0.0006175673   -0.0025625882    0.0002092909
  -0.0006883455    0.0025962148    0.0001377017
   0.0012477512   -0.0018983751   -0.0009667672
   0.0011715577    0.0017891023   -0.0008348176
   0.0007791532   -0.0018231912   -0.0010438428
   0.0010450987    0.0021164259   -0.0011184969
  -0.0017245241    0.0017845879    0.0011028056
  -0.0018473048   -0.0021550094    0.0014590069
  -0.0015102971    0.0017490196    0.0012595654
  -0.0015532322   -0.0017087131    0.0013136182
   0.0006438582   -0.0005364195   -0.0008076971
   0.0009144112    0.0000593164   -0.0005848822
   0.0005317595   -0.0000047718   -0.0007419352
   0.0004794174    0.0000146483   -0.0004094913