 104  104
1 1
     5.314318613130153    -0.147986320033266    -0.731925718292680
    -0.136889656973396     1.108678975466437    -0.129549719356019
    -0.728897575262585    -0.123899083189817     3.195792642216594
1 2
     0.016101228367548     0.008378568448361     0.013227498224346
    -0.008174243286525     0.019289215288714     0.001818486412940
     0.013436768202038    -0.002765804256041    -0.020131964126879
1 3
    -0.028491856494901    -0.001835965673806    -0.001944496972769
     0.001664025337626    -0.003157913250408     0.004866485411920
    -0.002098660313036    -0.001784351596654     0.011262111564426
1 4
    -0.001658608203024     0.016951372631352    -0.056551047442366
    -0.017168385791899     0.000032844724102     0.009471900338533
    -0.056640187309773    -0.009716072863243    -0.030046640900244
1 5
    -0.009459066283316    -0.006560086823441     0.002480258631168
     0.003768285314814    -0.007541754944695    -0.005949078888032
     0.023400588204342    -0.028376059888394    -0.064746011836548
1 6
     0.026760481585257     0.001546622738038    -0.009226377052233
     0.139131054698485    -0.074616532843514    -0.016261482524113
    -0.022226459325858     0.003016966169499     0.000628964096965
1 7
    -0.010721513616976    -0.007001449736085    -0.040927060064050
    -0.005986798572014     0.010052482303561    -0.010540955313014
    -0.016702740079520    -0.007199134221284    -0.073077379108450
1 8
    -0.116193048808129    -0.073170674069920     0.058746517531920
    -0.010041045636935     0.062534307143707    -0.037558702331974
    -0.026028056713443    -0.056633283911208     0.039374248965095
1 9
    -0.473525068463029     0.401143347273931    -0.052328264708984
     0.417894504487168     0.056939713487083    -0.041825068640733
    -0.082327720087589    -0.027732361058965     0.227859819161544
1 10
    -0.009834365516155     0.004123082129950     0.003939977020377
     0.004577967792381     0.037277773853086    -0.009540665597305
     0.021251644641733     0.030153292895468    -0.053449711640318
1 11
    -0.095251032197662     0.081767713731664     0.071968931539332
     0.031975532576114    -0.014756548387150     0.004555700492225
    -0.018644181290901     0.057376506328197     0.039030304684507
1 12
    -0.001221367228937    -0.006998899514320    -0.002126506316448
    -0.005081546200563     0.000293791825883    -0.007997067198816
    -0.001315015634682    -0.003913467473274    -0.004915968785008
1 13
     0.000310395123889     0.021603474681059    -0.016864352217834
     0.020106997090779     0.016042607916062     0.017764873634498
    -0.003483795591597     0.037398436201400    -0.024306153239093
1 14
    -0.144362014177621    -0.001658560802328     0.005457309534907
    -0.042606696948737    -0.029882711689360     0.008275777029591
     0.067906007322366    -0.001804663084480    -0.057549808394497
1 15
     0.022739455086314     0.003719960391533     0.020867524648682
     0.004721103352124     0.021884859479526     0.008050971467101
     0.008667927792173    -0.001506729376582    -0.007618893675287
1 16
     0.006118937956798    -0.078697588099303     0.002599754617269
    -0.105958793230761    -0.009017213453585    -0.122413046436690
    -0.007637922074976    -0.069293900907554     0.030839927894999
1 17
     0.003936646311724     0.004480714166454    -0.009414968532414
    -0.041140066421550    -0.060559304492022     0.137861322873044
    -0.002659679106061     0.003041669564828     0.019600683279368
1 18
     0.131246210551134    -0.102799823089214     0.135231527362232
    -0.037503968678913    -0.035508375350155     0.080375662869071
     0.044822353885144     0.072280733557592    -0.137220639193378
1 19
    -0.035109545031720    -0.006770696759182    -0.001270284903179
    -0.002376672935650     0.014882273707983    -0.006530838414708
    -0.051355782905857    -0.019429148361525     0.009293036152196
1 20
    -0.044946815239385    -0.036505101287958    -0.009349923501900
     0.000216539339836     0.025937000915794    -0.004974616461083
    -0.011503476575016    -0.012425519467098    -0.010024965540312
1 21
     0.119574177630602     0.113030278821640     0.162406827755416
     0.088519150635987     0.084600522463142    -0.066303160745229
     0.130083684917388    -0.077207433237469    -0.244711259447096
1 22
     0.042883812840576    -0.007222991913535     0.067805447236110
    -0.027680740496363     0.101314181833769     0.199262525261009
     0.096136833985541     0.182907192800477    -0.123793097961056
1 23
    -0.013698158290610    -0.006416730105696    -0.012413717709585
    -0.000305889757522    -0.003783090823765    -0.004787619240568
     0.001040013136416    -0.002345718589841    -0.008196222712981
1 24
    -0.021415902747053     0.003990169401416    -0.002495354538498
    -0.011513957257379     0.002460148467354    -0.004494743087767
    -0.046494989521257     0.016190158244470     0.006444147081751
1 25
    -0.016595761217519     0.039006181516262     0.037878607152569
     0.037513985969251     0.054850536389830    -0.038151249548452
     0.033952524732384    -0.025283172068822     0.019566604514497
1 26
     0.094212123152474    -0.103025486903616    -0.292780516556738
    -0.277119665500000     0.035227007985700    -0.011556824501313
    -0.807511809955522     0.018858381695488    -0.234768212785066
1 27
     0.112520156064265     0.011463810260978    -0.882767830814822
    -0.038650087085525     0.113644297649837     0.233670706923925
    -0.455882043545424     0.134958330717667    -0.184785595144063
1 28
    -0.039869494557734    -0.079547149031648    -0.015265510736057
    -0.029623059614430     0.019098172399888     0.016613366150045
    -0.006650309165614     0.048110598925418    -0.059329598735915
1 29
     0.015444808450731    -0.019237176860644    -0.009916794458821
    -0.008271773653350    -0.000024789862688     0.007151875872233
    -0.010207454334571     0.011928000491502     0.001060169194952
1 30
     0.008537208260951     0.027317196849180     0.060110609815225
     0.040256196867632    -0.006541356393387     0.033586159290498
     0.178576972045435     0.096347571100926    -0.021166467856536
1 31
    -0.096434990740918     0.080089257026276     0.146451954805370
     0.073889246974909    -0.110183866490055     0.040138096473926
     0.114087732071651     0.034074145137881     0.162904291043105
1 32
     0.023084539152612     0.054985872851157    -0.020461225805553
     0.037631397783544    -0.017884701285565    -0.021689751224397
    -0.023215949839536    -0.033961875506069     0.013789479617590
1 33
     0.041626373644081    -0.009357756781211     0.101053001254579
     0.014520924911883    -0.096277029140105    -0.052964352329001
     0.175202937646811    -0.079361327221719     0.005320841378239
1 34
     0.043268026128148    -0.017782912937734    -0.021410441114524
     0.004908168414961    -0.052615477215723    -0.000377373405457
    -0.021947741511095     0.011112265148538     0.016843074449307
1 35
    -0.010025700888656     0.021014731040348     0.010618106357579
     0.046324359767416    -0.006965803566538    -0.029172135737573
     0.001212195173878    -0.007610355779007     0.005550249078738
1 36
    -0.115099537220333    -0.093002015597606     0.133377009256931
    -0.033463332296901    -0.022533906600528    -0.062512134144530
     0.044814165905269    -0.066003897243945     0.069618748475588
1 37
    -0.301467638400287     0.071358738730989     0.254776466135061
     0.126845516786851    -0.193470615531575    -0.373788147496697
     0.383937327586541    -0.386234353330567    -1.572357485786123
1 38
    -0.002203307646597    -0.039809936293264    -0.026787489480572
    -0.036254227436964    -0.022306120359438     0.013290755350645
    -0.023950798894112     0.027402219275914     0.010253997205678
1 39
     0.024844596694710     0.012652163154788     0.004576698966141
     0.017833517487625    -0.007354005743126     0.003219734711268
    -0.003651250824013    -0.009899847387881     0.005547619869968
1 40
     0.128195891703049    -0.005159537088527     0.222390874738772
    -0.016739850152409    -0.007222827849358    -0.065524510528567
     0.068661069672759    -0.013421939953439    -0.020377158344072
1 41
     0.030756885617730    -0.046357443350424    -0.011172012458674
    -0.048953171254628    -0.019223880127377     0.043630091800316
    -0.008925410126599     0.029074755450921    -0.020991254740957
1 42
    -0.047676357974329     0.007261050766590    -0.004635428159061
     0.072819716950289     0.000655582223207     0.061236694145844
     0.151537774161790     0.001241653182050     0.208764187279770
1 43
    -2.440089761219984     0.485883157401089    -0.189171914751319
     0.451727382375670    -0.115103460801745     0.037379955237190
    -0.305300704552163     0.082246965348225    -0.254231832746966
1 44
     0.008572642072415     0.012661494447134    -0.007604092471887
     0.005203824728638    -0.006728391223429    -0.016158849596014
    -0.003358620583623    -0.006987512022358     0.031401379081471
1 45
    -2.101358315365234    -0.398187917578490     1.051295314470263
    -0.455999579370805    -0.396374253135221     0.284633842151642
     1.194513233517567     0.280573082689125    -0.995449573235604
1 46
    -0.006862406905270    -0.012948164822612    -0.006875453545223
    -0.005382065103099    -0.038300040290590    -0.075119594643377
    -0.016315446554360    -0.061163984511123     0.040799157943888
1 47
     0.046340542140820     0.065656966447338     0.003778532579153
     0.044842989839042    -0.029644081084235     0.022871269702316
     0.012501575008205     0.032082079120305    -0.013457406682923
1 48
     0.012644472657979    -0.000415520310958     0.033993707508243
     0.008514838348898    -0.025185557565855    -0.004137864167381
     0.034761704512034    -0.002386509120661     0.038548731281182
1 49
    -0.166475410529555    -0.078306693936049     0.026872852865491
    -0.012941586432754    -0.307666837942357    -0.000859510190190
     0.019319325655322     0.014208816245106    -0.129271041099098
1 50
    -0.020632411142144    -0.007323717318049    -0.058386682446760
    -0.004459705121754    -0.017580729437457    -0.014279832167231
    -0.038891684977584    -0.003059101664970     0.065744966038748
1 51
     0.081235052538488     0.000023628215993    -0.003651023763950
    -0.000822663981244    -0.006261940539341     0.008852826552479
     0.014435778476660    -0.003597905540645    -0.035546902266371
1 52
     0.014994541058351     0.009230600752425     0.013369547625574
     0.002439144566313    -0.008824607021368    -0.000837284850125
     0.015330321688556     0.004392970422544     0.022090261173696
1 53
     0.002920320399922    -0.001763449350105     0.001522324809572
    -0.001369322928433    -0.113015316196524     0.002979039354281
     0.001480840326719     0.003646648606680     0.000909294698465
1 54
     0.013531074953753    -0.002195500177492     0.013349152647844
     0.002252618298792    -0.012006490318238    -0.000039349589166
     0.013236991247218    -0.000396929322088    -0.018919336621775
1 55
    -0.028814451639660     0.001652468032596    -0.001910251487295
    -0.002032411856351    -0.003225837656614    -0.001869511396823
    -0.002132553626747     0.004962201835684     0.011384912836642
1 56
    -0.004074320908970    -0.003003507935390    -0.002484726916300
     0.002917736492425    -0.002026079145915     0.001113071492560
    -0.002594874824079    -0.001591006968763    -0.004646803927041
1 57
    -0.001135005583000     0.004178297720468     0.004031646167836
    -0.000451235026986    -0.010927372873668     0.002806198582944
    -0.000384706730988     0.008335423430244    -0.017904389179918
1 58
    -0.089333598601810    -0.240626133709850    -0.082515723002519
    -0.229815530138752    -0.156176987812597     0.014219781232236
    -0.051304384724492     0.043596925787495     0.171186919362563
1 59
     0.000252466978563     0.004581490595307    -0.001943304475422
    -0.001041082423891    -0.015112422657977    -0.001590084413767
    -0.003101071196651     0.000335988319752    -0.004861746803037
1 60
     0.002410037907417     0.011104674602746     0.007126239886042
     0.000345358225157    -0.021279793066303     0.005773673619036
     0.002286797806893     0.005736262307949     0.008674669802517
1 61
     0.011542201412003    -0.008806671553207    -0.006167606652812
    -0.032460397928792    -0.037264063099845     0.004626024198580
    -0.007488868655026     0.004879451562860     0.007549507704526
1 62
    -0.001695084349572    -0.003566157065438     0.003233375774564
    -0.001101555567675    -0.018198726751542     0.003830862204778
    -0.003014937783123    -0.008685057961980    -0.017187553276933
1 63
     0.009507152024257    -0.008165397996477     0.006800372796201
    -0.037376648000781    -0.021169202134956    -0.007296195207998
     0.005493786489339    -0.003721193002861     0.008304774505407
1 64
    -0.005803808983630     0.002903716708066    -0.034033890212628
     0.002102225469151    -0.001054580469812     0.020850840566721
    -0.007109300433897     0.004344684874342    -0.044135402062071
1 65
    -0.002917121548875    -0.011982771468347    -0.013985340045746
    -0.002402378716419    -0.019931476605541    -0.002555387772065
    -0.006638819789397    -0.034190943512763    -0.020476111420234
1 66
    -0.000050481103247     0.000820579535599    -0.005943218596960
     0.009667738929556    -0.007573095065638    -0.006262949302882
    -0.004763271250994    -0.000594090239124     0.002591634144115
1 67
     0.003095965840743    -0.000160962618650     0.005074908281529
     0.000337506455746    -0.020361600485080     0.001210866205378
     0.001103355797204     0.000189898698677    -0.002949872467638
1 68
     0.011803463201333     0.050280532883053     0.006570277570857
     0.026605571460850    -0.029911107465426     0.028403795144858
    -0.000835005470416     0.037120547780875     0.017780585247188
1 69
     0.027574806127410    -0.025350527368074     0.027733713397926
     0.015021060794576    -0.028594030794561    -0.069760615408555
     0.078956153433661    -0.137221914781877    -0.002643155855021
1 70
     0.014219613892451     0.008111399122573    -0.002086335833927
     0.013987149622817    -0.015737300075036    -0.030072757040028
    -0.003553726410296    -0.007689334938508     0.006667437546156
1 71
    -0.004359252701222     0.001157747976668    -0.003069545334464
     0.004334683228116    -0.013665139134182     0.000292723786162
    -0.004931532230795    -0.004080594352320     0.001443987336849
1 72
    -0.014483591066735     0.006394538515218    -0.011772157247002
    -0.002207016880344    -0.015075530296747     0.000539776176685
     0.001173902469130     0.001661895763970    -0.010629804928126
1 73
     0.013958015849705    -0.009673049334348    -0.001330038983751
    -0.004237656423448    -0.022319033628906     0.000497682408216
    -0.000924510178282     0.008753409952420     0.002646471458830
1 74
     0.007656269401334    -0.003138908707450     0.000548660733176
     0.000911262108838    -0.038016578722369    -0.034792407846954
     0.002588232544636    -0.006263112618074     0.015383390639534
1 75
    -0.045325267580112     0.037291652156189    -0.010844439161193
     0.002946222375849    -0.005805506909660    -0.002525260525510
    -0.008343596452818     0.013125124548770    -0.013186822074568
1 76
    -0.003585515046823    -0.002680391451654    -0.002992461192033
     0.008402817081043    -0.003201649230478     0.000419337868893
    -0.004642023809113     0.004921359341756     0.000445294872208
1 77
    -0.022740110676566    -0.043188112410974     0.031481259870907
    -0.010583132354751    -0.026685789319344     0.011942626202738
     0.028918769827562     0.022752801166332     0.000818654019502
1 78
     0.005696194106991    -0.004288592805029     0.001334358533419
     0.038742185052481    -0.059300887755206     0.024901621270472
     0.013856940387680     0.000286644178549    -0.014929398509848
1 79
    -0.014733787952880    -0.001310834284685     0.010595255402203
    -0.010262387522657    -0.063056868744516    -0.021204668025866
    -0.013450282310815     0.001925530721628     0.020294264320643
1 80
    -0.028016166385988     0.036880738513758    -0.014625888407045
     0.005594373474439    -0.042229137571491    -0.001927570840665
    -0.006018415719150    -0.025140244936938    -0.042344456773773
1 81
     0.045355114642042     0.018520906884235    -0.018558120749829
    -0.000551723197346     0.012718609916769    -0.001402875829718
    -0.020910712284489    -0.008799992822535     0.017819125736534
1 82
    -0.004509121410345     0.002538018354118    -0.002713063515090
    -0.024755502637009     0.042696760473580    -0.033784502792600
    -0.004781529420766    -0.003541285863982     0.004558271274949
1 83
     0.002604976541351    -0.002868849823906    -0.004384979772703
    -0.012322847305010     0.042391836218698     0.003986472227459
     0.003722482064029    -0.003272224277568    -0.006807185574709
1 84
    -0.004054547639698    -0.012285076102064     0.003574952267269
    -0.002717879033825     0.024006560052904     0.000181758882141
     0.000532203917737     0.005147744584894     0.001815222762140
1 85
    -0.000113972324565     0.000563686391201     0.000918821651563
    -0.013007227426177     0.044974311028027     0.009748126644382
    -0.003464393382790     0.001554919782519     0.002480277617587
1 86
     0.015312543499939     0.018919452211376    -0.007919211749952
     0.006435598031248     0.026642027879804    -0.005346515453465
    -0.007570772719555    -0.011370445791239     0.005002055630525
1 87
     0.015246363090401    -0.028474164527756    -0.013707521454260
    -0.020012890472225     0.028774585242634     0.012019412856146
    -0.014603744964236     0.017624582787421     0.005097338408056
1 88
     0.003365397139339     0.003840991196484    -0.004815699322160
     0.022423064481904     0.047842343084881     0.023825304937758
     0.002460299282573     0.001278508611307    -0.012309156218178
1 89
     0.001887481554540     0.001839642280048    -0.001725483689137
    -0.025370769255285     0.085630862937997    -0.026647828827134
    -0.004939328450037     0.002048162565956    -0.005417777711558
1 90
    -0.000157511857507     0.043808992050520    -0.028514304764914
     0.012830264407448     0.015700224803344    -0.006088229828045
    -0.014327726460682    -0.025223300441019     0.014483571201049
1 91
     0.014258353423184    -0.005416980886407     0.001960840712915
    -0.005556347923172     0.011755303004930    -0.000432767940622
    -0.000234739453089     0.004245187617858     0.003578395632640
1 92
     0.004091955830518     0.000184059588638     0.002671580825697
     0.010820563374139     0.013957454024789     0.006990651734705
     0.001096564408851    -0.000344262231110     0.000851187059778
1 93
     0.030705557232244     0.041319761158040    -0.002115368730559
     0.014634504122157     0.013468253266456    -0.015044416090598
    -0.015559945024034    -0.036497269659944    -0.010549429620020
1 94
     0.003529584968308     0.001261069591077     0.001083159730106
    -0.005356017462112     0.011681533682897    -0.017271104511232
     0.002286287493873     0.000315000080944     0.008213879209011
1 95
    -0.004450022898537    -0.002696327210974    -0.010622775748057
     0.009021961783003     0.045816989416491     0.016626508549723
    -0.005331003807770    -0.003613027042321    -0.011084704311202
1 96
     0.004472908857137    -0.007826045245866    -0.002455298799751
    -0.001573121760011     0.010364428329517     0.004072992705684
    -0.002267416558053     0.001906246831192     0.017428506259905
1 97
    -0.011988617390881     0.005128338433481     0.005113027385563
    -0.023410278967019     0.089231386862241     0.017568119491709
     0.011746630674979    -0.008998388572698    -0.011740565440946
1 98
    -0.002201683742252     0.016162783840897    -0.003762632693197
     0.000191093544264     0.025732443381054     0.016672814717474
    -0.016117291854848     0.065907161280322     0.038527165180412
1 99
     0.045939247923726    -0.062001825937769     0.003353355747031
    -0.011601817746535     0.019447811147016    -0.004847414738162
     0.012284310749003    -0.032101654925252    -0.005652122636051
1 100
     0.002458406564536     0.000886080402599     0.002719357061965
    -0.001316633553791     0.018712604571978    -0.001429846004288
     0.001853731798247     0.000185195934705     0.003508356717093
1 101
    -0.039077006665432     0.015314836822137    -0.000320976936479
    -0.002500873893361     0.120093610738440     0.013362205674536
    -0.000626995395329     0.008478946406458    -0.042451415477008
1 102
    -0.005809714075919     0.001522587116549    -0.005872770532595
    -0.000951665759324     0.013589895841936     0.000702208834116
    -0.005261359037662     0.001468463157334     0.009284987544528
1 103
     0.011872688097077     0.000735703607342     0.000787554198167
    -0.000486609494802     0.010476560130504     0.000888102070808
     0.000979824616482     0.000867092045816    -0.007594648817175
1 104
     0.014573238860286    -0.011688345476129     0.014058571739614
    -0.000429740363880     0.014616636868335    -0.001583241640942
     0.015405741788964     0.001761985819350     0.023283324238459
2 1
     0.016100011304553    -0.008379557388791     0.013224788585046
     0.008171302868391     0.019288995355776    -0.001821471916954
     0.013434581607119     0.002768528689740    -0.020132665004525
2 2
     5.314331483737502     0.147988058139441    -0.731934507318007
     0.136896797869044     1.108655994363027     0.129538327400161
    -0.728897853636363     0.123857640519651     3.195773464131476
2 3
    -0.001645305170668    -0.016940403500348    -0.056538998360200
     0.017158013105767     0.000022250935921    -0.009472529435952
    -0.056634186251743     0.009721927977029    -0.030041540911346
2 4
    -0.028484675656303     0.001838429516327    -0.001945122027236
    -0.001655406973317    -0.003151906969941    -0.004865407222421
    -0.002078380073148     0.001778192385098     0.011250669588247
2 5
     0.026763543566208    -0.001545138707403    -0.009216240662295
    -0.139133788701205    -0.074615994255420     0.016265261723729
    -0.022227677837869    -0.003021157783241     0.000635631441859
2 6
    -0.009451359951468     0.006550328758456     0.002493530794545
    -0.003768524316492    -0.007536088867780     0.005952740547277
     0.023395229340594     0.028367540152638    -0.064737779626794
2 7
    -0.116160048526828     0.073181057522465     0.058729369160011
     0.010000726134579     0.062483196239210     0.037570616719822
    -0.026017575151979     0.056638791983137     0.039373155361898
2 8
    -0.010726687091027     0.006994652245170    -0.040937870564808
     0.005989378489554     0.010047265203724     0.010540818497924
    -0.016707055565090     0.007199355041790    -0.073076656209532
2 9
    -0.009833174733796    -0.004117269842230     0.003932897195201
    -0.004574173838698     0.037286742877605     0.009534850900744
     0.021252899126993    -0.030150783673808    -0.053470014249766
2 10
    -0.473536682042357    -0.401145378393782    -0.052327524482290
    -0.417912352821019     0.056936522375767     0.041833393981938
    -0.082341926305977     0.027721906153106     0.227850498776657
2 11
    -0.001222993928713     0.007003893502325    -0.002130903833436
     0.005080626686332     0.000288387608863     0.007999309497314
    -0.001314842091415     0.003909670782638    -0.004924091954821
2 12
    -0.095251992111147    -0.081773885927335     0.071972925597695
    -0.031970928657018    -0.014760008005212    -0.004547943102898
    -0.018635759955276    -0.057378116844535     0.039036634361219
2 13
    -0.144373107138311     0.001657619143363     0.005456859639467
     0.042576287158677    -0.029897070958244    -0.008284185739204
     0.067908461367635     0.001802433757765    -0.057553889554556
2 14
     0.000315322526145    -0.021606190906316    -0.016863170265881
    -0.020102774372561     0.016044473659969    -0.017763826792962
    -0.003483500115545    -0.037393526354289    -0.024298845236748
2 15
     0.006113733464315     0.078688795320538     0.002589839390960
     0.105960998911373    -0.009011142143654     0.122412080914822
    -0.007642630495037     0.069281867990206     0.030842074524533
2 16
     0.022734360432684    -0.003719688405943     0.020870774359206
    -0.004719817151389     0.021887245983923    -0.008053033157681
     0.008666007409185     0.001505487942371    -0.007617770674022
2 17
     0.131250159724557     0.102792451950946     0.135229862200431
     0.037510706896253    -0.035522050943228    -0.080383992065792
     0.044824594526233    -0.072279846888707    -0.137234489541524
2 18
     0.003952651859901    -0.004479452425233    -0.009404613525610
     0.041187773610345    -0.060523806684501    -0.137836883427680
    -0.002662999467746    -0.003035134566819     0.019606187275304
2 19
    -0.044955461628609     0.036507178545219    -0.009349051328197
    -0.000219132339360     0.025945467544225     0.004974304408846
    -0.011504683660005     0.012431618320149    -0.010037230767676
2 20
    -0.035106093241210     0.006775668695112    -0.001262258172075
     0.002376473096128     0.014894368947357     0.006504847387679
    -0.051341762556404     0.019442517999578     0.009301852104676
2 21
     0.042894045823160     0.007226011783532     0.067811667926806
     0.027684631180578     0.101315560382021    -0.199258112368535
     0.096143623647763    -0.182909005399855    -0.123789739715917
2 22
     0.119542060385226    -0.113034237481464     0.162421670028212
    -0.088523088707054     0.084609826226048     0.066300087958446
     0.130072547655107     0.077210224395417    -0.244701229835801
2 23
    -0.021417330796518    -0.003988212328734    -0.002492219350510
     0.011514390749829     0.002463352944780     0.004493494153504
    -0.046494372643887    -0.016181191131972     0.006445375189416
2 24
    -0.013694979860196     0.006405933458276    -0.012407555916639
     0.000318759654885    -0.003782416065462     0.004806964425761
     0.001040769632553     0.002340459549657    -0.008198406543391
2 25
     0.094223413606501     0.103032864103963    -0.292771324574987
     0.277137458779826     0.035227611506367     0.011566280661164
    -0.807484452612655    -0.018861265566124    -0.234767682199141
2 26
    -0.016622001431626    -0.038987721732886     0.037891802950863
    -0.037525538316792     0.054872932488764     0.038140900581804
     0.033942129273015     0.025298402374764     0.019572472162935
2 27
    -0.039883357201587     0.079551985302129    -0.015262704875162
     0.029631258877551     0.019103286270038    -0.016622870639168
    -0.006663173482449    -0.048091876312563    -0.059319610211884
2 28
     0.112531328061614    -0.011448103021976    -0.882797707612610
     0.038697630399294     0.113663952610895    -0.233693761796652
    -0.455879381283806    -0.134959916391244    -0.184800664383634
2 29
     0.008530659611840    -0.027304689904641     0.060117315091865
    -0.040270230980566    -0.006535039819866    -0.033580466546947
     0.178576616466487    -0.096346257876091    -0.021169514276957
2 30
     0.015449155798946     0.019221462526477    -0.009910727534875
     0.008262607880858    -0.000025789163107    -0.007142163970285
    -0.010203802661246    -0.011930677914193     0.001060099689811
2 31
     0.023096278179712    -0.054976993362242    -0.020464225973375
    -0.037622721595128    -0.017889759311092     0.021677799544704
    -0.023229477956610     0.033952090452299     0.013784109240292
2 32
    -0.096458102395283    -0.080090272608177     0.146476125169987
    -0.073900268928212    -0.110168829956701    -0.040121095288986
     0.114028671542467    -0.034079347817783     0.162926873788628
2 33
     0.043274123675509     0.017814779313198    -0.021412387674336
    -0.004902382558933    -0.052585008545978     0.000370103340191
    -0.021940417022509    -0.011109545509749     0.016847423938932
2 34
     0.041626332183092     0.009358533967070     0.101060503759799
    -0.014527869982802    -0.096283219756767     0.052972229587204
     0.175200747636257     0.079356890867335     0.005338228277070
2 35
    -0.115115996329143     0.093008939104128     0.133395279593594
     0.033444843652026    -0.022543964154616     0.062539068675093
     0.044813220190799     0.065997161225251     0.069630094525091
2 36
    -0.010021300975756    -0.021031722635802     0.010620147923157
    -0.046321501445588    -0.006962574926778     0.029174150694979
     0.001212728327288     0.007595722792933     0.005551694160656
2 37
    -0.002189957453807     0.039819952992377    -0.026776173904275
     0.036261382119794    -0.022300270897143    -0.013278830507699
    -0.023941065968416    -0.027401498747070     0.010249326659639
2 38
    -0.301470094934996    -0.071344774541955     0.254771706742399
    -0.126844649796156    -0.193479880735725     0.373764745866160
     0.383934593539902     0.386230693262021    -1.572331418402066
2 39
     0.128213541888820     0.005141435835287     0.222411154830948
     0.016735361039282    -0.007226581347256     0.065553361008617
     0.068669183761500     0.013412672855889    -0.020368907311340
2 40
     0.024844120178385    -0.012655672343083     0.004566549216038
    -0.017834058622083    -0.007365541026436    -0.003234569250865
    -0.003650763825617     0.009890902233295     0.005542251950983
2 41
    -0.047682022954843    -0.007258211327450    -0.004661870037735
    -0.072835219015903     0.000664988649531    -0.061253691357872
     0.151527293049780    -0.001242748504547     0.208753868247202
2 42
     0.030761974500030     0.046359814159317    -0.011170241908842